 Entering Gaussian System, Link 0=/s/ls4/users/knvvv/bin/g16sse/g16
 Input=data/database/M062X--def2-QZVPPD--239_sif4_W4-11.gjf
 Output=data/database/M062X--def2-QZVPPD--239_sif4_W4-11.log
 Initial command:
 /s/ls4/users/knvvv/bin/g16sse/l1.exe "/s/ls4/users/knvvv/bin/scratch/Gau-3165.inp" -scrdir="/s/ls4/users/knvvv/bin/scratch/"
 Entering Link 1 = /s/ls4/users/knvvv/bin/g16sse/l1.exe PID=      3166.
  
 Copyright (c) 1988,1990,1992,1993,1995,1998,2003,2009,2016,
            Gaussian, Inc.  All Rights Reserved.
  
 This is part of the Gaussian(R) 16 program.  It is based on
 the Gaussian(R) 09 system (copyright 2009, Gaussian, Inc.),
 the Gaussian(R) 03 system (copyright 2003, Gaussian, Inc.),
 the Gaussian(R) 98 system (copyright 1998, Gaussian, Inc.),
 the Gaussian(R) 94 system (copyright 1995, Gaussian, Inc.),
 the Gaussian 92(TM) system (copyright 1992, Gaussian, Inc.),
 the Gaussian 90(TM) system (copyright 1990, Gaussian, Inc.),
 the Gaussian 88(TM) system (copyright 1988, Gaussian, Inc.),
 the Gaussian 86(TM) system (copyright 1986, Carnegie Mellon
 University), and the Gaussian 82(TM) system (copyright 1983,
 Carnegie Mellon University). Gaussian is a federally registered
 trademark of Gaussian, Inc.
  
 This software contains proprietary and confidential information,
 including trade secrets, belonging to Gaussian, Inc.
  
 This software is provided under written license and may be
 used, copied, transmitted, or stored only in accord with that
 written license.
  
 The following legend is applicable only to US Government
 contracts under FAR:
  
                    RESTRICTED RIGHTS LEGEND
  
 Use, reproduction and disclosure by the US Government is
 subject to restrictions as set forth in subparagraphs (a)
 and (c) of the Commercial Computer Software - Restricted
 Rights clause in FAR 52.227-19.
  
 Gaussian, Inc.
 340 Quinnipiac St., Bldg. 40, Wallingford CT 06492
  
  
 ---------------------------------------------------------------
 Warning -- This program may not be used in any manner that
 competes with the business of Gaussian, Inc. or will provide
 assistance to any competitor of Gaussian, Inc.  The licensee
 of this program is prohibited from giving any competitor of
 Gaussian, Inc. access to this program.  By using this program,
 the user acknowledges that Gaussian, Inc. is engaged in the
 business of creating and licensing software in the field of
 computational chemistry and represents and warrants to the
 licensee that it is not a competitor of Gaussian, Inc. and that
 it will not use this program in any manner prohibited above.
 ---------------------------------------------------------------
  

 Cite this work as:
 Gaussian 16, Revision A.03,
 M. J. Frisch, G. W. Trucks, H. B. Schlegel, G. E. Scuseria, 
 M. A. Robb, J. R. Cheeseman, G. Scalmani, V. Barone, 
 G. A. Petersson, H. Nakatsuji, X. Li, M. Caricato, A. V. Marenich, 
 J. Bloino, B. G. Janesko, R. Gomperts, B. Mennucci, H. P. Hratchian, 
 J. V. Ortiz, A. F. Izmaylov, J. L. Sonnenberg, D. Williams-Young, 
 F. Ding, F. Lipparini, F. Egidi, J. Goings, B. Peng, A. Petrone, 
 T. Henderson, D. Ranasinghe, V. G. Zakrzewski, J. Gao, N. Rega, 
 G. Zheng, W. Liang, M. Hada, M. Ehara, K. Toyota, R. Fukuda, 
 J. Hasegawa, M. Ishida, T. Nakajima, Y. Honda, O. Kitao, H. Nakai, 
 T. Vreven, K. Throssell, J. A. Montgomery, Jr., J. E. Peralta, 
 F. Ogliaro, M. J. Bearpark, J. J. Heyd, E. N. Brothers, K. N. Kudin, 
 V. N. Staroverov, T. A. Keith, R. Kobayashi, J. Normand, 
 K. Raghavachari, A. P. Rendell, J. C. Burant, S. S. Iyengar, 
 J. Tomasi, M. Cossi, J. M. Millam, M. Klene, C. Adamo, R. Cammi, 
 J. W. Ochterski, R. L. Martin, K. Morokuma, O. Farkas, 
 J. B. Foresman, and D. J. Fox, Gaussian, Inc., Wallingford CT, 2016.
 
 ******************************************
 Gaussian 16:  ES64L-G16RevA.03 25-Dec-2016
                17-Apr-2021 
 ******************************************
 %RWF=temp21_63071,70GB
 %nprocshared=48
 Will use up to   48 processors via shared memory.
 Default route: MaxDisk=80GB
 ----------------------------------------------------------------------
 #P M062X/GEN Integral=UltraFineGrid SCF=NoSymm Stable=(RExt, Opt) IOp(
 1/33=1)
 ----------------------------------------------------------------------
 1/33=1,38=1,172=1/1;
 2/12=2,17=6,18=5,40=1/2;
 3/5=7,11=2,25=1,30=1,74=-55,75=-5/1,2,3;
 4/9=2/1;
 5/5=2,38=5/2;
 6/7=2,8=2,9=2,10=2,28=1/1;
 8/6=1,10=90,11=11/1;
 9/8=-3,42=1,46=1/14;
 5/5=2,8=3,17=40,38=5/8(-2);
 6/7=2,8=2,9=2,10=2,28=1/1;
 99/5=1,9=1/99;
 Leave Link    1 at Sat Apr 17 20:29:15 2021, MaxMem=           0 cpu:               9.6 elap:               0.2
 (Enter /s/ls4/users/knvvv/bin/g16sse/l101.exe)
 ONIOM data not found on unit 2.
 ----------------------
 Database calculations.
 ----------------------
 TstMul:  ICh=     0
 TstMul:  Mul=     1
 TstMul:  ICh=     0
 TstMul:  Mul=     1
 Symbolic Z-matrix:
 Charge =  0 Multiplicity = 1
 F                     0.        0.        0. 
 Si                    0.        0.        1.56043 
 F                     1.47119   0.        2.08057 
 F                    -0.73559   1.27409   2.08057 
 F                    -0.73559  -1.27409   2.08057 
 
 RdStrC is calling ZToCFu for IStruc=1 NZ=     5.
 PrtBox:  NBox=     1 Levels=  1 BoxLen=    8.00 SMaxX=        4.82
          Shift=            1.390071            2.407673            0.000000
 Box      1 Number                   0 centers from      1 to      5:
 After GenITR:
 ITRead=  0  0  0  0  0
 MicOpt= -1 -1 -1 -1 -1
 ITRead=  0  0  0  0  0
 MicOpt= -1 -1 -1 -1 -1
 NAtoms=      5 NQM=        5 NQMF=       0 NMMI=      0 NMMIF=      0
                NMic=       0 NMicF=      0.
                    Isotopes and Nuclear Properties:
 (Nuclear quadrupole moments (NQMom) in fm**2, nuclear magnetic moments (NMagM)
  in nuclear magnetons)

  Atom         1           2           3           4           5
 IAtWgt=          19          28          19          19          19
 AtmWgt=  18.9984033  27.9769284  18.9984033  18.9984033  18.9984033
 NucSpn=           1           0           1           1           1
 AtZEff=  -0.0000000  -0.0000000  -0.0000000  -0.0000000  -0.0000000
 NQMom=    0.0000000   0.0000000   0.0000000   0.0000000   0.0000000
 NMagM=    2.6288670   0.0000000   2.6288670   2.6288670   2.6288670
 AtZNuc=   9.0000000  14.0000000   9.0000000   9.0000000   9.0000000
 No MM parameters found.
 Leave Link  101 at Sat Apr 17 20:29:15 2021, MaxMem=   104857600 cpu:               6.6 elap:               0.2
 (Enter /s/ls4/users/knvvv/bin/g16sse/l202.exe)
                          Input orientation:                          
 ---------------------------------------------------------------------
 Center     Atomic      Atomic             Coordinates (Angstroms)
 Number     Number       Type             X           Y           Z
 ---------------------------------------------------------------------
      1          9           0        0.000000    0.000000    0.000000
      2         14           0        0.000000    0.000000    1.560430
      3          9           0        1.471188    0.000000    2.080573
      4          9           0       -0.735594    1.274086    2.080573
      5          9           0       -0.735594   -1.274086    2.080573
 ---------------------------------------------------------------------
                    Distance matrix (angstroms):
                    1          2          3          4          5
     1  F    0.000000
     2  Si   1.560430   0.000000
     3  F    2.548172   1.560430   0.000000
     4  F    2.548172   1.560430   2.548172   0.000000
     5  F    2.548172   1.560430   2.548172   2.548172   0.000000
 Stoichiometry    F4Si
 Framework group  TD[O(Si),4C3(F)]
 Deg. of freedom     1
 Full point group                 TD      NOp  24
 Largest Abelian subgroup         D2      NOp   4
 Largest concise Abelian subgroup D2      NOp   4
                         Standard orientation:                         
 ---------------------------------------------------------------------
 Center     Atomic      Atomic             Coordinates (Angstroms)
 Number     Number       Type             X           Y           Z
 ---------------------------------------------------------------------
      1          9           0        0.900915    0.900915    0.900915
      2         14           0        0.000000    0.000000    0.000000
      3          9           0       -0.900915   -0.900915    0.900915
      4          9           0       -0.900915    0.900915   -0.900915
      5          9           0        0.900915   -0.900915   -0.900915
 ---------------------------------------------------------------------
 Rotational constants (GHZ):           4.0967813           4.0967813           4.0967813
 Leave Link  202 at Sat Apr 17 20:29:16 2021, MaxMem=   104857600 cpu:              21.9 elap:               0.5
 (Enter /s/ls4/users/knvvv/bin/g16sse/l301.exe)
 General basis read from cards:  (5D, 7F)
 Centers:       1      3      4      5
 S 8 1.00
     Exponent=  1.3253597345D+05 Coefficients=  4.7387482743D-05
     Exponent=  1.9758112588D+04 Coefficients=  3.7070120897D-04
     Exponent=  4.4851996947D+03 Coefficients=  1.9450784713D-03
     Exponent=  1.2738151020D+03 Coefficients=  8.0573291994D-03
     Exponent=  4.1893831236D+02 Coefficients=  2.7992880781D-02
     Exponent=  1.5255721985D+02 Coefficients=  8.2735120175D-02
     Exponent=  5.9821524823D+01 Coefficients=  1.9854169012D-01
     Exponent=  2.4819076932D+01 Coefficients=  3.4860632233D-01
 S 2 1.00
     Exponent=  1.0074446673D+02 Coefficients=  1.0505068816D-01
     Exponent=  3.0103728290D+01 Coefficients=  9.4068472434D-01
 S 1 1.00
     Exponent=  1.0814283272D+01 Coefficients=  1.0000000000D+00
 S 1 1.00
     Exponent=  4.8172886770D+00 Coefficients=  1.0000000000D+00
 S 1 1.00
     Exponent=  1.6559334213D+00 Coefficients=  1.0000000000D+00
 S 1 1.00
     Exponent=  6.4893519582D-01 Coefficients=  1.0000000000D+00
 S 1 1.00
     Exponent=  2.4778104545D-01 Coefficients=  1.0000000000D+00
 S 1 1.00
     Exponent=  8.7626236800D-02 Coefficients=  1.0000000000D+00
 P 5 1.00
     Exponent=  2.4096654114D+02 Coefficients=  3.0389933451D-03
     Exponent=  5.7020699781D+01 Coefficients=  2.4357738582D-02
     Exponent=  1.8126952120D+01 Coefficients=  1.1442925768D-01
     Exponent=  6.6457404621D+00 Coefficients=  3.7064659853D-01
     Exponent=  2.6375722892D+00 Coefficients=  7.9791551766D-01
 P 1 1.00
     Exponent=  1.0638217200D+00 Coefficients=  1.0000000000D+00
 P 1 1.00
     Exponent=  4.1932562750D-01 Coefficients=  1.0000000000D+00
 P 1 1.00
     Exponent=  1.5747588299D-01 Coefficients=  1.0000000000D+00
 P 1 1.00
     Exponent=  4.6772400332D-02 Coefficients=  1.0000000000D+00
 D 1 1.00
     Exponent=  5.0140000000D+00 Coefficients=  1.0000000000D+00
 D 1 1.00
     Exponent=  1.7250000000D+00 Coefficients=  1.0000000000D+00
 D 1 1.00
     Exponent=  5.8600000000D-01 Coefficients=  1.0000000000D+00
 D 1 1.00
     Exponent=  1.5967986245D-01 Coefficients=  1.0000000000D+00
 F 1 1.00
     Exponent=  3.5620000000D+00 Coefficients=  1.0000000000D+00
 F 1 1.00
     Exponent=  1.1480000000D+00 Coefficients=  1.0000000000D+00
 G 1 1.00
     Exponent=  2.3760000000D+00 Coefficients=  1.0000000000D+00
 ****
 Centers:       2
 S 10 1.00
     Exponent=  9.1807069565D+05 Coefficients=  1.2658787192D-05
     Exponent=  1.3748525386D+05 Coefficients=  9.8408387461D-05
     Exponent=  3.1287772714D+04 Coefficients=  5.1731398244D-04
     Exponent=  8.8616105697D+03 Coefficients=  2.1785441933D-03
     Exponent=  2.8906943156D+03 Coefficients=  7.8656853716D-03
     Exponent=  1.0434063979D+03 Coefficients=  2.4987553674D-02
     Exponent=  4.0680160276D+02 Coefficients=  6.9761818844D-02
     Exponent=  1.6848360207D+02 Coefficients=  1.6473362733D-01
     Exponent=  7.3185628823D+01 Coefficients=  3.0285602647D-01
     Exponent=  3.2998485420D+01 Coefficients=  3.6007260439D-01
 S 3 1.00
     Exponent=  2.7878751325D+02 Coefficients=  2.0185463814D-02
     Exponent=  8.5910228722D+01 Coefficients=  1.7720406747D-01
     Exponent=  3.2992604031D+01 Coefficients=  6.3587860906D-01
 S 1 1.00
     Exponent=  1.5033693254D+01 Coefficients=  1.0000000000D+00
 S 1 1.00
     Exponent=  5.7257514773D+00 Coefficients=  1.0000000000D+00
 S 1 1.00
     Exponent=  2.6146521029D+00 Coefficients=  1.0000000000D+00
 S 1 1.00
     Exponent=  1.1757833152D+00 Coefficients=  1.0000000000D+00
 S 1 1.00
     Exponent=  3.5432330868D-01 Coefficients=  1.0000000000D+00
 S 1 1.00
     Exponent=  1.6248335806D-01 Coefficients=  1.0000000000D+00
 S 1 1.00
     Exponent=  6.8332457181D-02 Coefficients=  1.0000000000D+00
 S 1 1.00
     Exponent=  3.0521078871D-02 Coefficients=  1.0000000000D+00
 P 8 1.00
     Exponent=  1.7758850516D+03 Coefficients=  2.0186971126D-04
     Exponent=  4.2083786849D+02 Coefficients=  1.7544314655D-03
     Exponent=  1.3642290243D+02 Coefficients=  9.5039532290D-03
     Exponent=  5.1700991737D+01 Coefficients=  3.7325741590D-02
     Exponent=  2.1559456002D+01 Coefficients=  1.1085396329D-01
     Exponent=  9.5559200095D+00 Coefficients=  2.3756407046D-01
     Exponent=  4.3529819473D+00 Coefficients=  3.5295783750D-01
     Exponent=  2.0096964381D+00 Coefficients=  3.2885931947D-01
 P 2 1.00
     Exponent=  4.6418153780D+01 Coefficients=  2.5858819154D-02
     Exponent=  1.9076417796D+00 Coefficients= -5.9874865899D-01
 P 1 1.00
     Exponent=  9.2337221587D-01 Coefficients=  1.0000000000D+00
 P 1 1.00
     Exponent=  3.4515720370D-01 Coefficients=  1.0000000000D+00
 P 1 1.00
     Exponent=  1.3656834761D-01 Coefficients=  1.0000000000D+00
 P 1 1.00
     Exponent=  5.2987060586D-02 Coefficients=  1.0000000000D+00
 D 1 1.00
     Exponent=  2.6450000000D+00 Coefficients=  1.0000000000D+00
 D 1 1.00
     Exponent=  6.0800000000D-01 Coefficients=  1.0000000000D+00
 D 1 1.00
     Exponent=  2.7200000000D-01 Coefficients=  1.0000000000D+00
 D 1 1.00
     Exponent=  1.1300000000D-01 Coefficients=  1.0000000000D+00
 D 1 1.00
     Exponent=  4.4018904228D-02 Coefficients=  1.0000000000D+00
 F 1 1.00
     Exponent=  5.4100000000D-01 Coefficients=  1.0000000000D+00
 F 1 1.00
     Exponent=  2.1200000000D-01 Coefficients=  1.0000000000D+00
 G 1 1.00
     Exponent=  4.6100000000D-01 Coefficients=  1.0000000000D+00
 ****
 Ernie: Thresh=  0.10000D-02 Tol=  0.10000D-05 Strict=F.
 There are   115 symmetry adapted cartesian basis functions of A   symmetry.
 There are   102 symmetry adapted cartesian basis functions of B1  symmetry.
 There are   102 symmetry adapted cartesian basis functions of B2  symmetry.
 There are   102 symmetry adapted cartesian basis functions of B3  symmetry.
 There are    91 symmetry adapted basis functions of A   symmetry.
 There are    83 symmetry adapted basis functions of B1  symmetry.
 There are    83 symmetry adapted basis functions of B2  symmetry.
 There are    83 symmetry adapted basis functions of B3  symmetry.
   340 basis functions,   536 primitive gaussians,   421 cartesian basis functions
    25 alpha electrons       25 beta electrons
       nuclear repulsion energy       271.8451539419 Hartrees.
 IExCor= 4336 DFT=T Ex+Corr=M062X ExCW=0 ScaHFX=  0.540000
 ScaDFX=  1.000000  1.000000  1.000000  1.000000 ScalE2=  1.000000  1.000000
 IRadAn=      5 IRanWt=     -1 IRanGd=            0 ICorTp=0 IEmpDi=  4
 NAtoms=    5 NActive=    5 NUniq=    2 SFac= 4.00D+00 NAtFMM=   60 NAOKFM=F Big=F
 Integral buffers will be    131072 words long.
 Raffenetti 2 integral format.
 Two-electron integral symmetry is turned on.
 Leave Link  301 at Sat Apr 17 20:29:16 2021, MaxMem=   104857600 cpu:               8.5 elap:               0.2
 (Enter /s/ls4/users/knvvv/bin/g16sse/l302.exe)
 NPDir=0 NMtPBC=     1 NCelOv=     1 NCel=       1 NClECP=     1 NCelD=      1
         NCelK=      1 NCelE2=     1 NClLst=     1 CellRange=     0.0.
 One-electron integrals computed using PRISM.
 One-electron integral symmetry used in STVInt
 PrsmSu:  requested number of processors reduced to:   4 ShMem   1 Linda.
 PrsmSu:  requested number of processors reduced to:  21 ShMem   1 Linda.
 NBasis=   340 RedAO= T EigKep=  5.56D-05  NBF=    91    83    83    83
 NBsUse=   340 1.00D-06 EigRej= -1.00D+00 NBFU=    91    83    83    83
 Precomputing XC quadrature grid using
 IXCGrd= 4 IRadAn=           5 IRanWt=          -1 IRanGd=           0 AccXCQ= 0.00D+00.
 Generated NRdTot=       0 NPtTot=           0 NUsed=           0 NTot=          32
 NSgBfM=   419   418   418   419   419 MxSgAt=     5 MxSgA2=     5.
 Leave Link  302 at Sat Apr 17 20:30:31 2021, MaxMem=   104857600 cpu:            3525.1 elap:              75.0
 (Enter /s/ls4/users/knvvv/bin/g16sse/l303.exe)
 DipDrv:  MaxL=1.
 Leave Link  303 at Sat Apr 17 20:30:34 2021, MaxMem=   104857600 cpu:             138.3 elap:               3.0
 (Enter /s/ls4/users/knvvv/bin/g16sse/l401.exe)
 SCF N**3 symmetry information disabled.
 ExpMin= 3.05D-02 ExpMax= 9.18D+05 ExpMxC= 1.27D+03 IAcc=3 IRadAn=         5 AccDes= 0.00D+00
 Harris functional with IExCor= 1009 and IRadAn=       5 diagonalized for initial guess.
 HarFok:  IExCor= 1009 AccDes= 0.00D+00 IRadAn=         5 IDoV= 1 UseB2=F ITyADJ=14
 ICtDFT=  3500011 ScaDFX=  1.000000  1.000000  1.000000  1.000000
 FoFCou: FMM=F IPFlag=           0 FMFlag=      100000 FMFlg1=           0
         NFxFlg=           0 DoJE=T BraDBF=F KetDBF=T FulRan=T
         wScrn=  0.000000 ICntrl=       500 IOpCl=  0 I1Cent=   200000004 NGrid=           0
         NMat0=    1 NMatS0=      1 NMatT0=    0 NMatD0=    1 NMtDS0=    0 NMtDT0=    0
 Petite list used in FoFCou.
 CoulSu:  requested number of processors reduced to:  20 ShMem   1 Linda.
 CoulSu:  requested number of processors reduced to:  20 ShMem   1 Linda.
 CoulSu:  requested number of processors reduced to:  21 ShMem   1 Linda.
 CoulSu:  requested number of processors reduced to:  21 ShMem   1 Linda.
 Harris En= -688.813691778397    
 JPrj=0 DoOrth=F DoCkMO=F.
 Initial guess orbital symmetries:
       Occupied  (A1) (A1) (T2) (T2) (T2) (A1) (T2) (T2) (T2) (A1)
                 (T2) (T2) (T2) (A1) (T2) (T2) (T2) (E) (E) (T2)
                 (T2) (T2) (T1) (T1) (T1)
       Virtual   (A1) (T2) (T2) (T2) (A1) (T2) (T2) (T2) (E) (E)
                 (T2) (T2) (T2) (A1) (T2) (T2) (T2) (T1) (T1) (T1)
                 (E) (E) (T2) (T2) (T2) (A1) (T2) (T2) (T2) (E)
                 (E) (A1) (T2) (T2) (T2) (E) (E) (T2) (T2) (T2)
                 (T1) (T1) (T1) (T1) (T1) (T1) (T2) (T2) (T2) (E)
                 (E) (A1) (T2) (T2) (T2) (A1) (T2) (T2) (T2) (E)
                 (E) (T2) (T2) (T2) (T1) (T1) (T1) (T2) (T2) (T2)
                 (A1) (E) (E) (T1) (T1) (T1) (T2) (T2) (T2) (T2)
                 (T2) (T2) (A1) (T2) (T2) (T2) (E) (E) (T1) (T1)
                 (T1) (A1) (T2) (T2) (T2) (T1) (T1) (T1) (T1) (T1)
                 (T1) (E) (E) (T2) (T2) (T2) (A1) (T2) (T2) (T2)
                 (T2) (T2) (T2) (E) (E) (T2) (T2) (T2) (A1) (E)
                 (E) (T1) (T1) (T1) (T2) (T2) (T2) (T2) (T2) (T2)
                 (E) (E) (A1) (T2) (T2) (T2) (T1) (T1) (T1) (A1)
                 (T2) (T2) (T2) (A2) (T1) (T1) (T1) (A1) (T2) (T2)
                 (T2) (A1) (T2) (T2) (T2) (E) (E) (T1) (T1) (T1)
                 (A1) (T2) (T2) (T2) (T2) (T2) (T2) (E) (E) (T2)
                 (T2) (T2) (T1) (T1) (T1) (T1) (T1) (T1) (T2) (T2)
                 (T2) (E) (E) (A1) (E) (E) (T2) (T2) (T2) (T2)
                 (T2) (T2) (T1) (T1) (T1) (E) (E) (T1) (T1) (T1)
                 (T2) (T2) (T2) (E) (E) (T2) (T2) (T2) (A1) (T2)
                 (T2) (T2) (A1) (T2) (T2) (T2) (T1) (T1) (T1) (A2)
                 (T2) (T2) (T2) (E) (E) (T1) (T1) (T1) (T2) (T2)
                 (T2) (A1) (T2) (T2) (T2) (T1) (T1) (T1) (E) (E)
                 (E) (E) (T2) (T2) (T2) (T1) (T1) (T1) (A1) (T2)
                 (T2) (T2) (A2) (T1) (T1) (T1) (T2) (T2) (T2) (A1)
                 (T1) (T1) (T1) (T2) (T2) (T2) (E) (E) (T2) (T2)
                 (T2) (A1) (E) (E) (T2) (T2) (T2) (T1) (T1) (T1)
                 (A1) (T1) (T1) (T1) (T2) (T2) (T2) (E) (E) (T2)
                 (T2) (T2) (T1) (T1) (T1) (T2) (T2) (T2) (E) (E)
                 (A1) (T2) (T2) (T2) (A1) (A1) (T2) (T2) (T2) (A1)
                 (A1) (T2) (T2) (T2) (A1)
 The electronic state of the initial guess is 1-A1.
 Leave Link  401 at Sat Apr 17 20:30:35 2021, MaxMem=   104857600 cpu:              42.7 elap:               1.1
 (Enter /s/ls4/users/knvvv/bin/g16sse/l502.exe)
 Integral symmetry usage will be decided dynamically.
 Closed shell SCF:
 Using DIIS extrapolation, IDIIS=  1040.
 NGot=   104857600 LenX=   104474938 LenY=   104297256
 Requested convergence on RMS density matrix=1.00D-08 within 128 cycles.
 Requested convergence on MAX density matrix=1.00D-06.
 Requested convergence on             energy=1.00D-06.
 No special actions if energy rises.
 Fock matrices will be formed incrementally for  20 cycles.

 Cycle   1  Pass 1  IDiag  1:
 FoFJK:  IHMeth= 1 ICntrl=       0 DoSepK=F KAlg= 0 I1Cent=           0 FoldK=F
 IRaf= 950000000 NMat=       1 IRICut=       1 DoRegI=T DoRafI=F ISym2E= 1 IDoP0=0 IntGTp=1.
 FoFCou: FMM=F IPFlag=           0 FMFlag=      100000 FMFlg1=           0
         NFxFlg=           0 DoJE=F BraDBF=F KetDBF=F FulRan=T
         wScrn=  0.000000 ICntrl=         0 IOpCl=  0 I1Cent=           0 NGrid=           0
         NMat0=    1 NMatS0=      1 NMatT0=    0 NMatD0=    1 NMtDS0=    0 NMtDT0=    0
 Petite list used in FoFCou.
 CoulSu:  requested number of processors reduced to:  20 ShMem   1 Linda.
 E= -689.142188083604    
 DIIS: error= 3.10D-02 at cycle   1 NSaved=   1.
 NSaved= 1 IEnMin= 1 EnMin= -689.142188083604     IErMin= 1 ErrMin= 3.10D-02
 ErrMax= 3.10D-02  0.00D+00 EMaxC= 1.00D-01 BMatC= 2.95D-01 BMatP= 2.95D-01
 IDIUse=3 WtCom= 6.90D-01 WtEn= 3.10D-01
 Coeff-Com:  0.100D+01
 Coeff-En:   0.100D+01
 Coeff:      0.100D+01
 Gap=     0.489 Goal=   None    Shift=    0.000
 GapD=    0.489 DampG=2.000 DampE=0.500 DampFc=1.0000 IDamp=-1.
 RMSDP=1.08D-03 MaxDP=5.90D-02              OVMax= 8.01D-02

 Cycle   2  Pass 1  IDiag  1:
 RMSU=  1.08D-03    CP:  9.92D-01
 CoulSu:  requested number of processors reduced to:  20 ShMem   1 Linda.
 E= -689.133930317435     Delta-E=        0.008257766169 Rises=F Damp=F
 DIIS: error= 3.00D-02 at cycle   2 NSaved=   2.
 NSaved= 2 IEnMin= 1 EnMin= -689.142188083604     IErMin= 2 ErrMin= 3.00D-02
 ErrMax= 3.00D-02  0.00D+00 EMaxC= 1.00D-01 BMatC= 2.13D-01 BMatP= 2.95D-01
 IDIUse=3 WtCom= 7.00D-01 WtEn= 3.00D-01
 Coeff-Com:  0.451D+00 0.549D+00
 Coeff-En:   0.521D+00 0.479D+00
 Coeff:      0.472D+00 0.528D+00
 Gap=     0.552 Goal=   None    Shift=    0.000
 RMSDP=4.79D-04 MaxDP=2.59D-02 DE= 8.26D-03 OVMax= 5.52D-02

 Cycle   3  Pass 1  IDiag  1:
 RMSU=  3.09D-04    CP:  9.95D-01  6.61D-01
 CoulSu:  requested number of processors reduced to:  20 ShMem   1 Linda.
 E= -689.237735741663     Delta-E=       -0.103805424228 Rises=F Damp=F
 DIIS: error= 4.30D-03 at cycle   3 NSaved=   3.
 NSaved= 3 IEnMin= 3 EnMin= -689.237735741663     IErMin= 3 ErrMin= 4.30D-03
 ErrMax= 4.30D-03  0.00D+00 EMaxC= 1.00D-01 BMatC= 4.21D-03 BMatP= 2.13D-01
 IDIUse=3 WtCom= 9.57D-01 WtEn= 4.30D-02
 Coeff-Com: -0.253D-02 0.118D+00 0.884D+00
 Coeff-En:   0.000D+00 0.000D+00 0.100D+01
 Coeff:     -0.243D-02 0.113D+00 0.889D+00
 Gap=     0.544 Goal=   None    Shift=    0.000
 RMSDP=1.00D-04 MaxDP=8.72D-03 DE=-1.04D-01 OVMax= 6.41D-03

 Cycle   4  Pass 1  IDiag  1:
 RMSU=  7.00D-05    CP:  9.94D-01  7.16D-01  8.71D-01
 CoulSu:  requested number of processors reduced to:  20 ShMem   1 Linda.
 E= -689.239781671549     Delta-E=       -0.002045929887 Rises=F Damp=F
 DIIS: error= 6.64D-04 at cycle   4 NSaved=   4.
 NSaved= 4 IEnMin= 4 EnMin= -689.239781671549     IErMin= 4 ErrMin= 6.64D-04
 ErrMax= 6.64D-04  0.00D+00 EMaxC= 1.00D-01 BMatC= 3.82D-05 BMatP= 4.21D-03
 IDIUse=3 WtCom= 9.93D-01 WtEn= 6.64D-03
 Coeff-Com: -0.335D-02 0.185D-01 0.191D+00 0.793D+00
 Coeff-En:   0.000D+00 0.000D+00 0.000D+00 0.100D+01
 Coeff:     -0.333D-02 0.184D-01 0.190D+00 0.795D+00
 Gap=     0.544 Goal=   None    Shift=    0.000
 RMSDP=1.07D-05 MaxDP=5.07D-04 DE=-2.05D-03 OVMax= 5.62D-04

 Cycle   5  Pass 1  IDiag  1:
 RMSU=  6.63D-06    CP:  9.94D-01  7.16D-01  8.81D-01  1.11D+00
 CoulSu:  requested number of processors reduced to:  20 ShMem   1 Linda.
 E= -689.239792499925     Delta-E=       -0.000010828376 Rises=F Damp=F
 DIIS: error= 5.67D-05 at cycle   5 NSaved=   5.
 NSaved= 5 IEnMin= 5 EnMin= -689.239792499925     IErMin= 5 ErrMin= 5.67D-05
 ErrMax= 5.67D-05  0.00D+00 EMaxC= 1.00D-01 BMatC= 6.28D-07 BMatP= 3.82D-05
 IDIUse=1 WtCom= 1.00D+00 WtEn= 0.00D+00
 Coeff-Com: -0.260D-04-0.210D-02-0.224D-01 0.269D-01 0.998D+00
 Coeff:     -0.260D-04-0.210D-02-0.224D-01 0.269D-01 0.998D+00
 Gap=     0.544 Goal=   None    Shift=    0.000
 RMSDP=4.90D-06 MaxDP=3.40D-04 DE=-1.08D-05 OVMax= 1.04D-04

 Cycle   6  Pass 1  IDiag  1:
 RMSU=  9.66D-07    CP:  9.94D-01  7.17D-01  8.79D-01  1.17D+00  1.15D+00
 CoulSu:  requested number of processors reduced to:  20 ShMem   1 Linda.
 E= -689.239792824391     Delta-E=       -0.000000324466 Rises=F Damp=F
 DIIS: error= 6.13D-06 at cycle   6 NSaved=   6.
 NSaved= 6 IEnMin= 6 EnMin= -689.239792824391     IErMin= 6 ErrMin= 6.13D-06
 ErrMax= 6.13D-06  0.00D+00 EMaxC= 1.00D-01 BMatC= 6.46D-09 BMatP= 6.28D-07
 IDIUse=1 WtCom= 1.00D+00 WtEn= 0.00D+00
 Coeff-Com:  0.322D-04-0.311D-03-0.313D-02-0.544D-02 0.487D-01 0.960D+00
 Coeff:      0.322D-04-0.311D-03-0.313D-02-0.544D-02 0.487D-01 0.960D+00
 Gap=     0.544 Goal=   None    Shift=    0.000
 RMSDP=5.53D-07 MaxDP=5.44D-05 DE=-3.24D-07 OVMax= 1.83D-05

 Cycle   7  Pass 1  IDiag  1:
 RMSU=  1.95D-07    CP:  9.94D-01  7.18D-01  8.78D-01  1.18D+00  1.16D+00
                    CP:  1.10D+00
 CoulSu:  requested number of processors reduced to:  20 ShMem   1 Linda.
 E= -689.239792828948     Delta-E=       -0.000000004557 Rises=F Damp=F
 DIIS: error= 2.04D-06 at cycle   7 NSaved=   7.
 NSaved= 7 IEnMin= 7 EnMin= -689.239792828948     IErMin= 7 ErrMin= 2.04D-06
 ErrMax= 2.04D-06  0.00D+00 EMaxC= 1.00D-01 BMatC= 5.39D-10 BMatP= 6.46D-09
 IDIUse=1 WtCom= 1.00D+00 WtEn= 0.00D+00
 Coeff-Com:  0.828D-05 0.209D-04 0.332D-03-0.985D-03-0.297D-01 0.187D+00
 Coeff-Com:  0.843D+00
 Coeff:      0.828D-05 0.209D-04 0.332D-03-0.985D-03-0.297D-01 0.187D+00
 Coeff:      0.843D+00
 Gap=     0.544 Goal=   None    Shift=    0.000
 RMSDP=9.29D-08 MaxDP=9.63D-06 DE=-4.56D-09 OVMax= 5.14D-06

 Cycle   8  Pass 1  IDiag  1:
 RMSU=  3.10D-08    CP:  9.94D-01  7.17D-01  8.78D-01  1.18D+00  1.16D+00
                    CP:  1.13D+00  1.02D+00
 CoulSu:  requested number of processors reduced to:  20 ShMem   1 Linda.
 E= -689.239792829385     Delta-E=       -0.000000000437 Rises=F Damp=F
 DIIS: error= 3.74D-07 at cycle   8 NSaved=   8.
 NSaved= 8 IEnMin= 8 EnMin= -689.239792829385     IErMin= 8 ErrMin= 3.74D-07
 ErrMax= 3.74D-07  0.00D+00 EMaxC= 1.00D-01 BMatC= 1.41D-11 BMatP= 5.39D-10
 IDIUse=1 WtCom= 1.00D+00 WtEn= 0.00D+00
 Coeff-Com: -0.182D-05 0.468D-05 0.608D-05 0.235D-03 0.108D-02-0.430D-01
 Coeff-Com: -0.502D-01 0.109D+01
 Coeff:     -0.182D-05 0.468D-05 0.608D-05 0.235D-03 0.108D-02-0.430D-01
 Coeff:     -0.502D-01 0.109D+01
 Gap=     0.544 Goal=   None    Shift=    0.000
 RMSDP=1.65D-08 MaxDP=1.86D-06 DE=-4.37D-10 OVMax= 1.74D-06

 Cycle   9  Pass 1  IDiag  1:
 RMSU=  6.63D-09    CP:  9.94D-01  7.17D-01  8.78D-01  1.18D+00  1.16D+00
                    CP:  1.13D+00  1.04D+00  1.11D+00
 CoulSu:  requested number of processors reduced to:  21 ShMem   1 Linda.
 E= -689.239792829417     Delta-E=       -0.000000000033 Rises=F Damp=F
 DIIS: error= 2.93D-08 at cycle   9 NSaved=   9.
 NSaved= 9 IEnMin= 9 EnMin= -689.239792829417     IErMin= 9 ErrMin= 2.93D-08
 ErrMax= 2.93D-08  0.00D+00 EMaxC= 1.00D-01 BMatC= 1.68D-13 BMatP= 1.41D-11
 IDIUse=1 WtCom= 1.00D+00 WtEn= 0.00D+00
 Coeff-Com:  0.172D-06-0.160D-05-0.807D-05-0.136D-04 0.400D-03 0.226D-02
 Coeff-Com: -0.117D-01-0.136D+00 0.115D+01
 Coeff:      0.172D-06-0.160D-05-0.807D-05-0.136D-04 0.400D-03 0.226D-02
 Coeff:     -0.117D-01-0.136D+00 0.115D+01
 Gap=     0.544 Goal=   None    Shift=    0.000
 RMSDP=1.50D-09 MaxDP=9.76D-08 DE=-3.27D-11 OVMax= 1.76D-07

 SCF Done:  E(RM062X) =  -689.239792829     A.U. after    9 cycles
            NFock=  9  Conv=0.15D-08     -V/T= 2.0023
 KE= 6.876245592613D+02 PE=-2.187492402681D+03 EE= 5.387828966481D+02
 Leave Link  502 at Sat Apr 17 20:32:14 2021, MaxMem=   104857600 cpu:            4467.3 elap:              98.9
 (Enter /s/ls4/users/knvvv/bin/g16sse/l601.exe)
 Copying SCF densities to generalized density rwf, IOpCl= 0 IROHF=0.

 **********************************************************************

            Population analysis using the SCF density.

 **********************************************************************

 Orbital symmetries:
       Occupied  (A1) (T2) (T2) (T2) (A1) (A1) (T2) (T2) (T2) (A1)
                 (T2) (T2) (T2) (A1) (T2) (T2) (T2) (E) (E) (T2)
                 (T2) (T2) (T1) (T1) (T1)
       Virtual   (A1) (T2) (T2) (T2) (T2) (T2) (T2) (E) (E) (A1)
                 (T2) (T2) (T2) (T1) (T1) (T1) (A1) (T2) (T2) (T2)
                 (E) (E) (T2) (T2) (T2) (A1) (T2) (T2) (T2) (A1)
                 (E) (E) (T2) (T2) (T2) (E) (E) (T2) (T2) (T2)
                 (T1) (T1) (T1) (T1) (T1) (T1) (T2) (T2) (T2) (A1)
                 (E) (E) (T2) (T2) (T2) (A1) (T2) (T2) (T2) (E)
                 (E) (T2) (T2) (T2) (T2) (T2) (T2) (T1) (T1) (T1)
                 (A1) (E) (E) (T1) (T1) (T1) (T2) (T2) (T2) (T2)
                 (T2) (T2) (A1) (T2) (T2) (T2) (E) (E) (T1) (T1)
                 (T1) (A1) (T2) (T2) (T2) (T1) (T1) (T1) (E) (E)
                 (T2) (T2) (T2) (T1) (T1) (T1) (A1) (T2) (T2) (T2)
                 (T2) (T2) (T2) (E) (E) (T2) (T2) (T2) (A1) (T1)
                 (T1) (T1) (E) (E) (T2) (T2) (T2) (T2) (T2) (T2)
                 (E) (E) (A1) (T2) (T2) (T2) (T1) (T1) (T1) (A1)
                 (T2) (T2) (T2) (A2) (T1) (T1) (T1) (A1) (T2) (T2)
                 (T2) (A1) (T2) (T2) (T2) (E) (E) (T1) (T1) (T1)
                 (T2) (T2) (T2) (A1) (T2) (T2) (T2) (E) (E) (T2)
                 (T2) (T2) (T1) (T1) (T1) (T1) (T1) (T1) (E) (E)
                 (T2) (T2) (T2) (A1) (E) (E) (T2) (T2) (T2) (T2)
                 (T2) (T2) (T1) (T1) (T1) (E) (E) (T1) (T1) (T1)
                 (T2) (T2) (T2) (E) (E) (A1) (T2) (T2) (T2) (T2)
                 (T2) (T2) (A1) (T2) (T2) (T2) (T1) (T1) (T1) (A2)
                 (T2) (T2) (T2) (T2) (T2) (T2) (E) (E) (T1) (T1)
                 (T1) (A1) (T2) (T2) (T2) (T1) (T1) (T1) (E) (E)
                 (E) (E) (T2) (T2) (T2) (T1) (T1) (T1) (A1) (T2)
                 (T2) (T2) (A2) (T1) (T1) (T1) (T2) (T2) (T2) (A1)
                 (T1) (T1) (T1) (T2) (T2) (T2) (E) (E) (T2) (T2)
                 (T2) (E) (E) (A1) (T2) (T2) (T2) (T1) (T1) (T1)
                 (A1) (T1) (T1) (T1) (T2) (T2) (T2) (E) (E) (T2)
                 (T2) (T2) (T1) (T1) (T1) (T2) (T2) (T2) (E) (E)
                 (A1) (T2) (T2) (T2) (A1) (A1) (T2) (T2) (T2) (A1)
                 (A1) (T2) (T2) (T2) (A1)
 The electronic state is 1-A1.
 Alpha  occ. eigenvalues --  -67.15048 -25.28222 -25.28222 -25.28222 -25.28220
 Alpha  occ. eigenvalues --   -5.67738  -3.99148  -3.99148  -3.99148  -1.41427
 Alpha  occ. eigenvalues --   -1.37826  -1.37826  -1.37826  -0.72165  -0.65112
 Alpha  occ. eigenvalues --   -0.65112  -0.65112  -0.60037  -0.60037  -0.58762
 Alpha  occ. eigenvalues --   -0.58762  -0.58762  -0.55295  -0.55295  -0.55295
 Alpha virt. eigenvalues --   -0.00886   0.03374   0.03374   0.03374   0.07520
 Alpha virt. eigenvalues --    0.07520   0.07520   0.08041   0.08041   0.09502
 Alpha virt. eigenvalues --    0.13000   0.13000   0.13000   0.13665   0.13665
 Alpha virt. eigenvalues --    0.13665   0.14474   0.15481   0.15481   0.15481
 Alpha virt. eigenvalues --    0.20100   0.20100   0.25543   0.25543   0.25543
 Alpha virt. eigenvalues --    0.28024   0.28173   0.28173   0.28173   0.34559
 Alpha virt. eigenvalues --    0.36324   0.36324   0.39619   0.39619   0.39619
 Alpha virt. eigenvalues --    0.45410   0.45410   0.48814   0.48814   0.48814
 Alpha virt. eigenvalues --    0.52132   0.52132   0.52132   0.52911   0.52911
 Alpha virt. eigenvalues --    0.52911   0.57758   0.57758   0.57758   0.59734
 Alpha virt. eigenvalues --    0.61172   0.61172   0.67875   0.67875   0.67875
 Alpha virt. eigenvalues --    0.74650   0.77601   0.77601   0.77601   0.78820
 Alpha virt. eigenvalues --    0.78820   0.82523   0.82523   0.82523   0.85310
 Alpha virt. eigenvalues --    0.85310   0.85310   0.86562   0.86562   0.86562
 Alpha virt. eigenvalues --    0.89224   0.95929   0.95929   1.06359   1.06359
 Alpha virt. eigenvalues --    1.06359   1.06892   1.06892   1.06892   1.16437
 Alpha virt. eigenvalues --    1.16437   1.16437   1.16806   1.49335   1.49335
 Alpha virt. eigenvalues --    1.49335   1.60839   1.60839   1.62830   1.62830
 Alpha virt. eigenvalues --    1.62830   1.68780   1.79601   1.79601   1.79601
 Alpha virt. eigenvalues --    1.81434   1.81434   1.81434   1.84624   1.84624
 Alpha virt. eigenvalues --    1.85470   1.85470   1.85470   1.89027   1.89027
 Alpha virt. eigenvalues --    1.89027   1.95180   1.99071   1.99071   1.99071
 Alpha virt. eigenvalues --    2.00514   2.00514   2.00514   2.13545   2.13545
 Alpha virt. eigenvalues --    2.13617   2.13617   2.13617   2.21207   2.40800
 Alpha virt. eigenvalues --    2.40800   2.40800   2.41627   2.41627   2.51449
 Alpha virt. eigenvalues --    2.51449   2.51449   2.66571   2.66571   2.66571
 Alpha virt. eigenvalues --    2.74455   2.74455   2.97551   2.99660   2.99660
 Alpha virt. eigenvalues --    2.99660   3.05254   3.05254   3.05254   3.21649
 Alpha virt. eigenvalues --    3.78223   3.78223   3.78223   4.12423   4.14744
 Alpha virt. eigenvalues --    4.14744   4.14744   4.15199   4.22805   4.22805
 Alpha virt. eigenvalues --    4.22805   4.38376   4.42302   4.42302   4.42302
 Alpha virt. eigenvalues --    4.44504   4.44504   4.48008   4.48008   4.48008
 Alpha virt. eigenvalues --    4.62554   4.62554   4.62554   4.62706   4.74905
 Alpha virt. eigenvalues --    4.74905   4.74905   4.93392   4.93392   5.01772
 Alpha virt. eigenvalues --    5.01772   5.01772   5.18076   5.18076   5.18076
 Alpha virt. eigenvalues --    5.28101   5.28101   5.28101   5.46170   5.46170
 Alpha virt. eigenvalues --    5.48474   5.48474   5.48474   5.69283   5.70640
 Alpha virt. eigenvalues --    5.70640   5.76572   5.76572   5.76572   5.86965
 Alpha virt. eigenvalues --    5.86965   5.86965   5.92296   5.92296   5.92296
 Alpha virt. eigenvalues --    6.15066   6.15066   6.44705   6.44705   6.44705
 Alpha virt. eigenvalues --    6.64113   6.64113   6.64113   6.95510   6.95510
 Alpha virt. eigenvalues --    7.16561   7.16912   7.16912   7.16912   7.38566
 Alpha virt. eigenvalues --    7.38566   7.38566   7.68707  11.10462  11.10462
 Alpha virt. eigenvalues --   11.10462  11.24089  11.24089  11.24089  11.24973
 Alpha virt. eigenvalues --   11.27392  11.27392  11.27392  11.27998  11.27998
 Alpha virt. eigenvalues --   11.27998  11.28194  11.28194  11.28229  11.28229
 Alpha virt. eigenvalues --   11.28229  11.31587  11.32154  11.32154  11.32154
 Alpha virt. eigenvalues --   11.33324  11.33324  11.33324  11.35301  11.35301
 Alpha virt. eigenvalues --   11.38553  11.38553  11.41733  11.41733  11.41733
 Alpha virt. eigenvalues --   11.47066  11.47066  11.47066  11.52290  12.84454
 Alpha virt. eigenvalues --   12.84454  12.84454  14.36979  14.37932  14.37932
 Alpha virt. eigenvalues --   14.37932  14.41813  14.41813  14.41813  14.48097
 Alpha virt. eigenvalues --   14.53549  14.53549  14.53549  14.56147  14.56147
 Alpha virt. eigenvalues --   14.56147  14.68079  14.68079  14.83088  14.83088
 Alpha virt. eigenvalues --   14.83088  14.86204  14.86204  14.90311  15.08673
 Alpha virt. eigenvalues --   15.08673  15.08673  15.11270  15.11270  15.11270
 Alpha virt. eigenvalues --   15.52646  15.83006  15.83006  15.83006  15.85204
 Alpha virt. eigenvalues --   15.85204  15.85204  15.89891  15.89891  15.96122
 Alpha virt. eigenvalues --   15.96122  15.96122  16.03502  16.03502  16.03502
 Alpha virt. eigenvalues --   16.21337  16.21337  16.21337  16.24708  16.24708
 Alpha virt. eigenvalues --   16.49647  16.53040  16.53040  16.53040  17.33652
 Alpha virt. eigenvalues --   54.46035  54.75555  54.75555  54.75555  58.59457
 Alpha virt. eigenvalues --  283.46027 283.75157 283.75157 283.75157 316.07526
          Condensed to atoms (all electrons):
               1          2          3          4          5
     1  F    8.982023   0.359309  -0.008723  -0.008723  -0.008723
     2  Si   0.359309  11.302110   0.359309   0.359309   0.359309
     3  F   -0.008723   0.359309   8.982023  -0.008723  -0.008723
     4  F   -0.008723   0.359309  -0.008723   8.982023  -0.008723
     5  F   -0.008723   0.359309  -0.008723  -0.008723   8.982023
 Mulliken charges:
               1
     1  F   -0.315163
     2  Si   1.260653
     3  F   -0.315163
     4  F   -0.315163
     5  F   -0.315163
 Sum of Mulliken charges =   0.00000
 Mulliken charges with hydrogens summed into heavy atoms:
               1
     1  F   -0.315163
     2  Si   1.260653
     3  F   -0.315163
     4  F   -0.315163
     5  F   -0.315163
 Electronic spatial extent (au):  <R**2>=            385.4139
 Charge=              0.0000 electrons
 Dipole moment (field-independent basis, Debye):
    X=             -0.0000    Y=              0.0000    Z=              0.0000  Tot=              0.0000
 Quadrupole moment (field-independent basis, Debye-Ang):
   XX=            -32.4520   YY=            -32.4520   ZZ=            -32.4520
   XY=             -0.0000   XZ=             -0.0000   YZ=             -0.0000
 Traceless Quadrupole moment (field-independent basis, Debye-Ang):
   XX=             -0.0000   YY=              0.0000   ZZ=             -0.0000
   XY=             -0.0000   XZ=             -0.0000   YZ=             -0.0000
 Octapole moment (field-independent basis, Debye-Ang**2):
  XXX=             -0.0000  YYY=             -0.0000  ZZZ=              0.0000  XYY=             -0.0000
  XXY=             -0.0000  XXZ=             -0.0000  XZZ=              0.0000  YZZ=             -0.0000
  YYZ=             -0.0000  XYZ=             -4.1603
 Hexadecapole moment (field-independent basis, Debye-Ang**3):
 XXXX=           -122.6505 YYYY=           -122.6505 ZZZZ=           -122.6505 XXXY=             -0.0000
 XXXZ=              0.0000 YYYX=             -0.0000 YYYZ=             -0.0000 ZZZX=              0.0000
 ZZZY=             -0.0000 XXYY=            -42.5721 XXZZ=            -42.5721 YYZZ=            -42.5721
 XXYZ=             -0.0000 YYXZ=              0.0000 ZZXY=             -0.0000
 N-N= 2.718451539419D+02 E-N=-2.187492402854D+03  KE= 6.876245592613D+02
 PrsmSu:  requested number of processors reduced to:  21 ShMem   1 Linda.
 No NMR shielding tensors so no spin-rotation constants.
 Leave Link  601 at Sat Apr 17 20:32:42 2021, MaxMem=   104857600 cpu:            1297.2 elap:              27.7
 (Enter /s/ls4/users/knvvv/bin/g16sse/l801.exe)
 DoSCS=F DFT=T ScalE2(SS,OS)=  1.000000  1.000000
 Range of M.O.s used for correlation:     1   340
 NBasis=   340 NAE=    25 NBE=    25 NFC=     0 NFV=     0
 NROrb=    340 NOA=    25 NOB=    25 NVA=   315 NVB=   315

 **** Warning!!: The largest alpha MO coefficient is  0.56465358D+02

 Leave Link  801 at Sat Apr 17 20:32:42 2021, MaxMem=   104857600 cpu:               4.4 elap:               0.1
 (Enter /s/ls4/users/knvvv/bin/g16sse/l914.exe)
 RHF ground state
 Doing stability rather than CIS.
 Two-electron integrals replicated using symmetry.
 MDV=   104857600 DFT=T DoStab=T Mixed=T DoRPA=F DoScal=F NonHer=F
 Making orbital integer symmetry assigments:
 Orbital symmetries:
       Occupied  (A1) (T2) (T2) (T2) (A1) (A1) (T2) (T2) (T2) (A1)
                 (T2) (T2) (T2) (A1) (T2) (T2) (T2) (E) (E) (T2)
                 (T2) (T2) (T1) (T1) (T1)
       Virtual   (A1) (T2) (T2) (T2) (T2) (T2) (T2) (E) (E) (A1)
                 (T2) (T2) (T2) (T1) (T1) (T1) (A1) (T2) (T2) (T2)
                 (E) (E) (T2) (T2) (T2) (A1) (T2) (T2) (T2) (A1)
                 (E) (E) (T2) (T2) (T2) (E) (E) (T2) (T2) (T2)
                 (T1) (T1) (T1) (T1) (T1) (T1) (T2) (T2) (T2) (A1)
                 (E) (E) (T2) (T2) (T2) (A1) (T2) (T2) (T2) (E)
                 (E) (T2) (T2) (T2) (T2) (T2) (T2) (T1) (T1) (T1)
                 (A1) (E) (E) (T1) (T1) (T1) (T2) (T2) (T2) (T2)
                 (T2) (T2) (A1) (T2) (T2) (T2) (E) (E) (T1) (T1)
                 (T1) (A1) (T2) (T2) (T2) (T1) (T1) (T1) (E) (E)
                 (T2) (T2) (T2) (T1) (T1) (T1) (A1) (T2) (T2) (T2)
                 (T2) (T2) (T2) (E) (E) (T2) (T2) (T2) (A1) (T1)
                 (T1) (T1) (E) (E) (T2) (T2) (T2) (T2) (T2) (T2)
                 (E) (E) (A1) (T2) (T2) (T2) (T1) (T1) (T1) (A1)
                 (T2) (T2) (T2) (A2) (T1) (T1) (T1) (A1) (T2) (T2)
                 (T2) (A1) (T2) (T2) (T2) (E) (E) (T1) (T1) (T1)
                 (T2) (T2) (T2) (A1) (T2) (T2) (T2) (E) (E) (T2)
                 (T2) (T2) (T1) (T1) (T1) (T1) (T1) (T1) (E) (E)
                 (T2) (T2) (T2) (A1) (E) (E) (T2) (T2) (T2) (T2)
                 (T2) (T2) (T1) (T1) (T1) (E) (E) (T1) (T1) (T1)
                 (T2) (T2) (T2) (E) (E) (A1) (T2) (T2) (T2) (T2)
                 (T2) (T2) (A1) (T2) (T2) (T2) (T1) (T1) (T1) (A2)
                 (T2) (T2) (T2) (T2) (T2) (T2) (E) (E) (T1) (T1)
                 (T1) (A1) (T2) (T2) (T2) (T1) (T1) (T1) (E) (E)
                 (E) (E) (T2) (T2) (T2) (T1) (T1) (T1) (A1) (T2)
                 (T2) (T2) (A2) (T1) (T1) (T1) (T2) (T2) (T2) (A1)
                 (T1) (T1) (T1) (T2) (T2) (T2) (E) (E) (T2) (T2)
                 (T2) (E) (E) (A1) (T2) (T2) (T2) (T1) (T1) (T1)
                 (A1) (T1) (T1) (T1) (T2) (T2) (T2) (E) (E) (T2)
                 (T2) (T2) (T1) (T1) (T1) (T2) (T2) (T2) (E) (E)
                 (A1) (T2) (T2) (T2) (A1) (A1) (T2) (T2) (T2) (A1)
                 (A1) (T2) (T2) (T2) (A1)
    24 initial guesses have been made.
 Convergence on wavefunction:    0.001000000000000
 Davidson Disk Diagonalization:  ConvIn= 1.00D-03 SkipCon=T Conv= 1.00D-03.
 Max sub-space:  2000 roots to seek:    24 dimension of matrix:        15750
 Iteration     1 Dimension    24 NMult     0 NNew     24
 Estimated number of processors is:   17
 CISAX will form     1 AO SS matrices at one time.
 NMat=     1 NSing=     1 JSym2X= 2.
 FoFJK:  IHMeth= 1 ICntrl=       0 DoSepK=F KAlg= 0 I1Cent=           0 FoldK=F
 IRaf= 950000000 NMat=       1 IRICut=       1 DoRegI=T DoRafI=F ISym2E= 2 IDoP0=0 IntGTp=1.
 FoFCou: FMM=F IPFlag=           0 FMFlag=      100000 FMFlg1=           0
         NFxFlg=           0 DoJE=F BraDBF=F KetDBF=F FulRan=T
         wScrn=  0.000000 ICntrl=         0 IOpCl=  0 I1Cent=           0 NGrid=           0
         NMat0=    1 NMatS0=      1 NMatT0=    0 NMatD0=    1 NMtDS0=    0 NMtDT0=    0
 Integrals replicated using symmetry in FoFCou.
 CoulSu:  requested number of processors reduced to:  17 ShMem   1 Linda.
 NMat=     1 NSing=     1 JSym2X= 2.
 CoulSu:  requested number of processors reduced to:  17 ShMem   1 Linda.
 NMat=     1 NSing=     1 JSym2X= 2.
 CoulSu:  requested number of processors reduced to:  17 ShMem   1 Linda.
 NMat=     1 NSing=     1 JSym2X= 2.
 CoulSu:  requested number of processors reduced to:  17 ShMem   1 Linda.
 NMat=     1 NSing=     1 JSym2X= 2.
 CoulSu:  requested number of processors reduced to:  17 ShMem   1 Linda.
 NMat=     1 NSing=     1 JSym2X= 2.
 CoulSu:  requested number of processors reduced to:  17 ShMem   1 Linda.
 NMat=     1 NSing=     1 JSym2X= 2.
 CoulSu:  requested number of processors reduced to:  17 ShMem   1 Linda.
 NMat=     1 NSing=     1 JSym2X= 2.
 CoulSu:  requested number of processors reduced to:  17 ShMem   1 Linda.
 NMat=     1 NSing=     1 JSym2X= 2.
 CoulSu:  requested number of processors reduced to:  17 ShMem   1 Linda.
 NMat=     1 NSing=     1 JSym2X= 2.
 CoulSu:  requested number of processors reduced to:  17 ShMem   1 Linda.
 NMat=     1 NSing=     1 JSym2X= 2.
 CoulSu:  requested number of processors reduced to:  17 ShMem   1 Linda.
 NMat=     1 NSing=     1 JSym2X= 2.
 CoulSu:  requested number of processors reduced to:  17 ShMem   1 Linda.
 NMat=     1 NSing=     0 JSym2X= 2.
 CoulSu:  requested number of processors reduced to:  17 ShMem   1 Linda.
 NMat=     1 NSing=     0 JSym2X= 2.
 CoulSu:  requested number of processors reduced to:  17 ShMem   1 Linda.
 NMat=     1 NSing=     0 JSym2X= 2.
 CoulSu:  requested number of processors reduced to:  17 ShMem   1 Linda.
 NMat=     1 NSing=     0 JSym2X= 2.
 CoulSu:  requested number of processors reduced to:  17 ShMem   1 Linda.
 NMat=     1 NSing=     0 JSym2X= 2.
 CoulSu:  requested number of processors reduced to:  17 ShMem   1 Linda.
 NMat=     1 NSing=     0 JSym2X= 2.
 CoulSu:  requested number of processors reduced to:  17 ShMem   1 Linda.
 NMat=     1 NSing=     0 JSym2X= 2.
 CoulSu:  requested number of processors reduced to:  17 ShMem   1 Linda.
 NMat=     1 NSing=     0 JSym2X= 2.
 CoulSu:  requested number of processors reduced to:  17 ShMem   1 Linda.
 NMat=     1 NSing=     0 JSym2X= 2.
 CoulSu:  requested number of processors reduced to:  17 ShMem   1 Linda.
 NMat=     1 NSing=     0 JSym2X= 2.
 CoulSu:  requested number of processors reduced to:  17 ShMem   1 Linda.
 NMat=     1 NSing=     0 JSym2X= 2.
 CoulSu:  requested number of processors reduced to:  17 ShMem   1 Linda.
 NMat=     1 NSing=     0 JSym2X= 2.
 CoulSu:  requested number of processors reduced to:  17 ShMem   1 Linda.
 New state      1 was old state      4
 Excitation Energies [eV] at current iteration:
 Root      1 :    12.115785814510220
 Root      2 :    12.128990398123050
 Root      3 :    12.135420706098940
 Root      4 :    12.245081801705720
 Root      5 :    12.256754879455320
 Root      6 :    12.260956986094640
 Root      7 :    12.999430188660540
 Root      8 :    13.072471140017080
 Root      9 :    13.075388019844690
 Root     10 :    13.411378755994130
 Root     11 :    13.412518926044950
 Root     12 :    13.412578744558810
 Root     13 :    13.700281004174690
 Root     14 :    13.761793663040230
 Root     15 :    13.769495929437620
 Root     16 :    13.780989992486250
 Root     17 :    13.801510533456160
 Root     18 :    13.809647575333040
 Root     19 :    13.817545230664140
 Root     20 :    13.830546051956130
 Root     21 :    13.832747232777360
 Root     22 :    13.993501913269430
 Root     23 :    14.004836316718630
 Root     24 :    14.205254057322960
 Iteration     2 Dimension    48 NMult    24 NNew     24
 Estimated number of processors is:   17
 CISAX will form     1 AO SS matrices at one time.
 NMat=     1 NSing=     1 JSym2X= 2.
 CoulSu:  requested number of processors reduced to:  17 ShMem   1 Linda.
 NMat=     1 NSing=     1 JSym2X= 2.
 CoulSu:  requested number of processors reduced to:  17 ShMem   1 Linda.
 NMat=     1 NSing=     1 JSym2X= 2.
 CoulSu:  requested number of processors reduced to:  17 ShMem   1 Linda.
 NMat=     1 NSing=     1 JSym2X= 2.
 CoulSu:  requested number of processors reduced to:  17 ShMem   1 Linda.
 NMat=     1 NSing=     1 JSym2X= 2.
 CoulSu:  requested number of processors reduced to:  17 ShMem   1 Linda.
 NMat=     1 NSing=     1 JSym2X= 2.
 CoulSu:  requested number of processors reduced to:  17 ShMem   1 Linda.
 NMat=     1 NSing=     1 JSym2X= 2.
 CoulSu:  requested number of processors reduced to:  17 ShMem   1 Linda.
 NMat=     1 NSing=     1 JSym2X= 2.
 CoulSu:  requested number of processors reduced to:  17 ShMem   1 Linda.
 NMat=     1 NSing=     1 JSym2X= 2.
 CoulSu:  requested number of processors reduced to:  17 ShMem   1 Linda.
 NMat=     1 NSing=     1 JSym2X= 2.
 CoulSu:  requested number of processors reduced to:  17 ShMem   1 Linda.
 NMat=     1 NSing=     1 JSym2X= 2.
 CoulSu:  requested number of processors reduced to:  17 ShMem   1 Linda.
 NMat=     1 NSing=     1 JSym2X= 2.
 CoulSu:  requested number of processors reduced to:  17 ShMem   1 Linda.
 NMat=     1 NSing=     0 JSym2X= 2.
 CoulSu:  requested number of processors reduced to:  17 ShMem   1 Linda.
 NMat=     1 NSing=     0 JSym2X= 2.
 CoulSu:  requested number of processors reduced to:  17 ShMem   1 Linda.
 NMat=     1 NSing=     0 JSym2X= 2.
 CoulSu:  requested number of processors reduced to:  17 ShMem   1 Linda.
 NMat=     1 NSing=     0 JSym2X= 2.
 CoulSu:  requested number of processors reduced to:  17 ShMem   1 Linda.
 NMat=     1 NSing=     0 JSym2X= 2.
 CoulSu:  requested number of processors reduced to:  17 ShMem   1 Linda.
 NMat=     1 NSing=     0 JSym2X= 2.
 CoulSu:  requested number of processors reduced to:  17 ShMem   1 Linda.
 NMat=     1 NSing=     0 JSym2X= 2.
 CoulSu:  requested number of processors reduced to:  17 ShMem   1 Linda.
 NMat=     1 NSing=     0 JSym2X= 2.
 CoulSu:  requested number of processors reduced to:  17 ShMem   1 Linda.
 NMat=     1 NSing=     0 JSym2X= 2.
 CoulSu:  requested number of processors reduced to:  17 ShMem   1 Linda.
 NMat=     1 NSing=     0 JSym2X= 2.
 CoulSu:  requested number of processors reduced to:  17 ShMem   1 Linda.
 NMat=     1 NSing=     0 JSym2X= 2.
 CoulSu:  requested number of processors reduced to:  17 ShMem   1 Linda.
 NMat=     1 NSing=     0 JSym2X= 2.
 CoulSu:  requested number of processors reduced to:  17 ShMem   1 Linda.
 Root      1 not converged, maximum delta is    0.235284112450095
 Excitation Energies [eV] at current iteration:
 Root      1 :    11.185568951392900   Change is   -0.930216863117327
 Root      2 :    11.187308584817750   Change is   -0.941681813305298
 Root      3 :    11.187993475712810   Change is   -0.947427230386135
 Root      4 :    11.784751378809190   Change is   -0.460330422896526
 Root      5 :    11.785103231278640   Change is   -0.475853754815996
 Root      6 :    11.785386375660190   Change is   -0.471368503795138
 Root      7 :    12.014665400058550   Change is   -0.984764788601988
 Root      8 :    12.055725369949720   Change is   -1.016745770067365
 Root      9 :    12.055988885041790   Change is   -1.019399134802905
 Root     10 :    12.798803042309850   Change is   -0.901477961864844
 Root     11 :    12.988149215016350   Change is   -0.773644448023880
 Root     12 :    13.042958067415210   Change is   -0.368420688578922
 Root     13 :    13.051967744770770   Change is   -0.360551181274177
 Root     14 :    13.053282691323030   Change is   -0.359296053235781
 Root     15 :    13.063883183672920   Change is   -0.717106808813328
 Root     16 :    13.119058789280230   Change is   -0.682451744175937
 Root     17 :    13.188911534927170   Change is   -0.643835697850194
 Root     18 :    13.247556708937420   Change is   -0.521939220500201
 Root     19 :    13.343697279087930   Change is   -0.473847951576216
 Root     20 :    13.378200171874650   Change is   -0.431447403458383
 Root     21 :    13.475862133685570   Change is   -0.354683918270561
 Root     22 :    13.703046495290860   Change is   -0.290455417978571
 Root     23 :    13.728113997655530   Change is   -0.276722319063099
 Root     24 :    13.863965008826290   Change is   -0.341289048496671
 Iteration     3 Dimension    54 NMult    48 NNew      6
 Estimated number of processors is:   17
 CISAX will form     1 AO SS matrices at one time.
 NMat=     1 NSing=     1 JSym2X= 2.
 CoulSu:  requested number of processors reduced to:  17 ShMem   1 Linda.
 NMat=     1 NSing=     1 JSym2X= 2.
 CoulSu:  requested number of processors reduced to:  17 ShMem   1 Linda.
 NMat=     1 NSing=     1 JSym2X= 2.
 CoulSu:  requested number of processors reduced to:  17 ShMem   1 Linda.
 NMat=     1 NSing=     0 JSym2X= 2.
 CoulSu:  requested number of processors reduced to:  17 ShMem   1 Linda.
 NMat=     1 NSing=     0 JSym2X= 2.
 CoulSu:  requested number of processors reduced to:  17 ShMem   1 Linda.
 NMat=     1 NSing=     0 JSym2X= 2.
 CoulSu:  requested number of processors reduced to:  17 ShMem   1 Linda.
 Root      1 not converged, maximum delta is    0.032989086080828
 Excitation Energies [eV] at current iteration:
 Root      1 :    11.061808129539020   Change is   -0.123760821853878
 Root      2 :    11.062275494973560   Change is   -0.125033089844196
 Root      3 :    11.062448518975240   Change is   -0.125544956737568
 Root      4 :    11.743870666391070   Change is   -0.040880712418116
 Root      5 :    11.744090060053020   Change is   -0.041013171225620
 Root      6 :    11.744161563731560   Change is   -0.041224811928629
 Iteration     4 Dimension    60 NMult    54 NNew      6
 Estimated number of processors is:   17
 CISAX will form     1 AO SS matrices at one time.
 NMat=     1 NSing=     1 JSym2X= 2.
 CoulSu:  requested number of processors reduced to:  17 ShMem   1 Linda.
 NMat=     1 NSing=     1 JSym2X= 2.
 CoulSu:  requested number of processors reduced to:  17 ShMem   1 Linda.
 NMat=     1 NSing=     1 JSym2X= 2.
 CoulSu:  requested number of processors reduced to:  17 ShMem   1 Linda.
 NMat=     1 NSing=     0 JSym2X= 2.
 CoulSu:  requested number of processors reduced to:  17 ShMem   1 Linda.
 NMat=     1 NSing=     0 JSym2X= 2.
 CoulSu:  requested number of processors reduced to:  17 ShMem   1 Linda.
 NMat=     1 NSing=     0 JSym2X= 2.
 CoulSu:  requested number of processors reduced to:  17 ShMem   1 Linda.
 Root      1 not converged, maximum delta is    0.027575667679606
 Excitation Energies [eV] at current iteration:
 Root      1 :    11.048900000135880   Change is   -0.012908129403142
 Root      2 :    11.048943874406930   Change is   -0.013331620566629
 Root      3 :    11.048957601291390   Change is   -0.013490917683847
 Root      4 :    11.733467204645530   Change is   -0.010403461745542
 Root      5 :    11.733607381911340   Change is   -0.010482678141681
 Root      6 :    11.733648428421000   Change is   -0.010513135310553
 Iteration     5 Dimension    66 NMult    60 NNew      6
 Estimated number of processors is:   17
 CISAX will form     1 AO SS matrices at one time.
 NMat=     1 NSing=     1 JSym2X= 2.
 CoulSu:  requested number of processors reduced to:  17 ShMem   1 Linda.
 NMat=     1 NSing=     1 JSym2X= 2.
 CoulSu:  requested number of processors reduced to:  17 ShMem   1 Linda.
 NMat=     1 NSing=     1 JSym2X= 2.
 CoulSu:  requested number of processors reduced to:  17 ShMem   1 Linda.
 NMat=     1 NSing=     0 JSym2X= 2.
 CoulSu:  requested number of processors reduced to:  17 ShMem   1 Linda.
 NMat=     1 NSing=     0 JSym2X= 2.
 CoulSu:  requested number of processors reduced to:  17 ShMem   1 Linda.
 NMat=     1 NSing=     0 JSym2X= 2.
 CoulSu:  requested number of processors reduced to:  17 ShMem   1 Linda.
 Root      1 not converged, maximum delta is    0.061930711255049
 Excitation Energies [eV] at current iteration:
 Root      1 :    11.047719889797000   Change is   -0.001180110338879
 Root      2 :    11.047727998900220   Change is   -0.001215875506705
 Root      3 :    11.047736779495110   Change is   -0.001220821796287
 Root      4 :    11.732758580848790   Change is   -0.000708623796745
 Root      5 :    11.732778850036010   Change is   -0.000828531875328
 Root      6 :    11.732785081256820   Change is   -0.000863347164182
 Iteration     6 Dimension    72 NMult    66 NNew      6
 Estimated number of processors is:   17
 CISAX will form     1 AO SS matrices at one time.
 NMat=     1 NSing=     1 JSym2X= 2.
 CoulSu:  requested number of processors reduced to:  17 ShMem   1 Linda.
 NMat=     1 NSing=     1 JSym2X= 2.
 CoulSu:  requested number of processors reduced to:  17 ShMem   1 Linda.
 NMat=     1 NSing=     1 JSym2X= 2.
 CoulSu:  requested number of processors reduced to:  17 ShMem   1 Linda.
 NMat=     1 NSing=     0 JSym2X= 2.
 CoulSu:  requested number of processors reduced to:  17 ShMem   1 Linda.
 NMat=     1 NSing=     0 JSym2X= 2.
 CoulSu:  requested number of processors reduced to:  17 ShMem   1 Linda.
 NMat=     1 NSing=     0 JSym2X= 2.
 CoulSu:  requested number of processors reduced to:  17 ShMem   1 Linda.
 Root      1 not converged, maximum delta is    0.029186975377797
 Excitation Energies [eV] at current iteration:
 Root      1 :    11.047681817184240   Change is   -0.000038072612754
 Root      2 :    11.047688296919110   Change is   -0.000039701981111
 Root      3 :    11.047692695178790   Change is   -0.000044084316320
 Root      4 :    11.732729926371420   Change is   -0.000028654477363
 Root      5 :    11.732735505174930   Change is   -0.000043344861080
 Root      6 :    11.732737221477400   Change is   -0.000047859779419
 Iteration     7 Dimension    78 NMult    72 NNew      6
 Estimated number of processors is:   17
 CISAX will form     1 AO SS matrices at one time.
 NMat=     1 NSing=     1 JSym2X= 2.
 CoulSu:  requested number of processors reduced to:  17 ShMem   1 Linda.
 NMat=     1 NSing=     1 JSym2X= 2.
 CoulSu:  requested number of processors reduced to:  17 ShMem   1 Linda.
 NMat=     1 NSing=     1 JSym2X= 2.
 CoulSu:  requested number of processors reduced to:  17 ShMem   1 Linda.
 NMat=     1 NSing=     0 JSym2X= 2.
 CoulSu:  requested number of processors reduced to:  17 ShMem   1 Linda.
 NMat=     1 NSing=     0 JSym2X= 2.
 CoulSu:  requested number of processors reduced to:  17 ShMem   1 Linda.
 NMat=     1 NSing=     0 JSym2X= 2.
 CoulSu:  requested number of processors reduced to:  17 ShMem   1 Linda.
 Root      1 not converged, maximum delta is    0.036889370154757
 Excitation Energies [eV] at current iteration:
 Root      1 :    11.047679153641710   Change is   -0.000002663542537
 Root      2 :    11.047681486812420   Change is   -0.000006810106692
 Root      3 :    11.047683405546290   Change is   -0.000009289632496
 Root      4 :    11.732728504105160   Change is   -0.000001422266259
 Root      5 :    11.732730047190010   Change is   -0.000005457984918
 Root      6 :    11.732730423686610   Change is   -0.000006797790792
 Iteration     8 Dimension    84 NMult    78 NNew      6
 Estimated number of processors is:   17
 CISAX will form     1 AO SS matrices at one time.
 NMat=     1 NSing=     1 JSym2X= 2.
 CoulSu:  requested number of processors reduced to:  17 ShMem   1 Linda.
 NMat=     1 NSing=     1 JSym2X= 2.
 CoulSu:  requested number of processors reduced to:  17 ShMem   1 Linda.
 NMat=     1 NSing=     1 JSym2X= 2.
 CoulSu:  requested number of processors reduced to:  17 ShMem   1 Linda.
 NMat=     1 NSing=     0 JSym2X= 2.
 CoulSu:  requested number of processors reduced to:  17 ShMem   1 Linda.
 NMat=     1 NSing=     0 JSym2X= 2.
 CoulSu:  requested number of processors reduced to:  17 ShMem   1 Linda.
 NMat=     1 NSing=     0 JSym2X= 2.
 CoulSu:  requested number of processors reduced to:  17 ShMem   1 Linda.
 Root      1 not converged, maximum delta is    0.045075752274996
 Excitation Energies [eV] at current iteration:
 Root      1 :    11.047678945902580   Change is   -0.000000207739124
 Root      2 :    11.047679643750030   Change is   -0.000001843062390
 Root      3 :    11.047680107987920   Change is   -0.000003297558368
 Root      4 :    11.732728365037650   Change is   -0.000000139067513
 Root      5 :    11.732728425264170   Change is   -0.000001621925842
 Root      6 :    11.732728539489860   Change is   -0.000001884196748
 Iteration     9 Dimension    90 NMult    84 NNew      6
 Estimated number of processors is:   17
 CISAX will form     1 AO SS matrices at one time.
 NMat=     1 NSing=     1 JSym2X= 2.
 CoulSu:  requested number of processors reduced to:  17 ShMem   1 Linda.
 NMat=     1 NSing=     1 JSym2X= 2.
 CoulSu:  requested number of processors reduced to:  17 ShMem   1 Linda.
 NMat=     1 NSing=     1 JSym2X= 2.
 CoulSu:  requested number of processors reduced to:  17 ShMem   1 Linda.
 NMat=     1 NSing=     0 JSym2X= 2.
 CoulSu:  requested number of processors reduced to:  17 ShMem   1 Linda.
 NMat=     1 NSing=     0 JSym2X= 2.
 CoulSu:  requested number of processors reduced to:  17 ShMem   1 Linda.
 NMat=     1 NSing=     0 JSym2X= 2.
 CoulSu:  requested number of processors reduced to:  17 ShMem   1 Linda.
 Root      1 not converged, maximum delta is    0.046388392248640
 Excitation Energies [eV] at current iteration:
 Root      1 :    11.047678865571850   Change is   -0.000000080330733
 Root      2 :    11.047679153218750   Change is   -0.000000490531274
 Root      3 :    11.047679266192000   Change is   -0.000000841795925
 Root      4 :    11.732728076871090   Change is   -0.000000348393084
 Root      5 :    11.732728162494140   Change is   -0.000000376995729
 Root      6 :    11.732728258119090   Change is   -0.000000106918559
 Iteration    10 Dimension    96 NMult    90 NNew      6
 Estimated number of processors is:   17
 CISAX will form     1 AO SS matrices at one time.
 NMat=     1 NSing=     1 JSym2X= 2.
 CoulSu:  requested number of processors reduced to:  17 ShMem   1 Linda.
 NMat=     1 NSing=     1 JSym2X= 2.
 CoulSu:  requested number of processors reduced to:  17 ShMem   1 Linda.
 NMat=     1 NSing=     1 JSym2X= 2.
 CoulSu:  requested number of processors reduced to:  17 ShMem   1 Linda.
 NMat=     1 NSing=     0 JSym2X= 2.
 CoulSu:  requested number of processors reduced to:  17 ShMem   1 Linda.
 NMat=     1 NSing=     0 JSym2X= 2.
 CoulSu:  requested number of processors reduced to:  17 ShMem   1 Linda.
 NMat=     1 NSing=     0 JSym2X= 2.
 CoulSu:  requested number of processors reduced to:  17 ShMem   1 Linda.
 Root      1 not converged, maximum delta is    0.034872713095056
 Excitation Energies [eV] at current iteration:
 Root      1 :    11.047678807071820   Change is   -0.000000058500034
 Root      2 :    11.047678920585510   Change is   -0.000000232633246
 Root      3 :    11.047678969181130   Change is   -0.000000297010871
 Root      4 :    11.732727997393870   Change is   -0.000000079477219
 Root      5 :    11.732728097256250   Change is   -0.000000065237883
 Root      6 :    11.732728213571780   Change is   -0.000000044547313
 Iteration    11 Dimension   102 NMult    96 NNew      6
 Estimated number of processors is:   17
 CISAX will form     1 AO SS matrices at one time.
 NMat=     1 NSing=     1 JSym2X= 2.
 CoulSu:  requested number of processors reduced to:  17 ShMem   1 Linda.
 NMat=     1 NSing=     1 JSym2X= 2.
 CoulSu:  requested number of processors reduced to:  17 ShMem   1 Linda.
 NMat=     1 NSing=     1 JSym2X= 2.
 CoulSu:  requested number of processors reduced to:  17 ShMem   1 Linda.
 NMat=     1 NSing=     0 JSym2X= 2.
 CoulSu:  requested number of processors reduced to:  17 ShMem   1 Linda.
 NMat=     1 NSing=     0 JSym2X= 2.
 CoulSu:  requested number of processors reduced to:  17 ShMem   1 Linda.
 NMat=     1 NSing=     0 JSym2X= 2.
 CoulSu:  requested number of processors reduced to:  17 ShMem   1 Linda.
 Root      1 not converged, maximum delta is    0.346617660253429
 Excitation Energies [eV] at current iteration:
 Root      1 :    11.047678765631320   Change is   -0.000000041440497
 Root      2 :    11.047678789523960   Change is   -0.000000131061548
 Root      3 :    11.047678817992890   Change is   -0.000000151188231
 Root      4 :    11.732727966585110   Change is   -0.000000030808754
 Root      5 :    11.732728070574340   Change is   -0.000000026681913
 Root      6 :    11.732728178590910   Change is   -0.000000034980869
 Iteration    12 Dimension   108 NMult   102 NNew      6
 Estimated number of processors is:   17
 CISAX will form     1 AO SS matrices at one time.
 NMat=     1 NSing=     1 JSym2X= 2.
 CoulSu:  requested number of processors reduced to:  17 ShMem   1 Linda.
 NMat=     1 NSing=     1 JSym2X= 2.
 CoulSu:  requested number of processors reduced to:  17 ShMem   1 Linda.
 NMat=     1 NSing=     1 JSym2X= 2.
 CoulSu:  requested number of processors reduced to:  17 ShMem   1 Linda.
 NMat=     1 NSing=     0 JSym2X= 2.
 CoulSu:  requested number of processors reduced to:  17 ShMem   1 Linda.
 NMat=     1 NSing=     0 JSym2X= 2.
 CoulSu:  requested number of processors reduced to:  17 ShMem   1 Linda.
 NMat=     1 NSing=     0 JSym2X= 2.
 CoulSu:  requested number of processors reduced to:  17 ShMem   1 Linda.
 New state      1 was old state      2
 Root      1 not converged, maximum delta is    0.244962661709014
 Excitation Energies [eV] at current iteration:
 Root      1 :    11.047678538873930   Change is   -0.000000250650035
 Root      2 :    11.047678608694340   Change is   -0.000000156936977
 Root      3 :    11.047678626436460   Change is   -0.000000191556433
 Root      4 :    11.732727950833220   Change is   -0.000000015751895
 Root      5 :    11.732728056411430   Change is   -0.000000014162907
 Root      6 :    11.732728164596020   Change is   -0.000000013994889
 Iteration    13 Dimension   114 NMult   108 NNew      6
 Estimated number of processors is:   17
 CISAX will form     1 AO SS matrices at one time.
 NMat=     1 NSing=     1 JSym2X= 2.
 CoulSu:  requested number of processors reduced to:  17 ShMem   1 Linda.
 NMat=     1 NSing=     1 JSym2X= 2.
 CoulSu:  requested number of processors reduced to:  17 ShMem   1 Linda.
 NMat=     1 NSing=     1 JSym2X= 2.
 CoulSu:  requested number of processors reduced to:  17 ShMem   1 Linda.
 NMat=     1 NSing=     0 JSym2X= 2.
 CoulSu:  requested number of processors reduced to:  17 ShMem   1 Linda.
 NMat=     1 NSing=     0 JSym2X= 2.
 CoulSu:  requested number of processors reduced to:  17 ShMem   1 Linda.
 NMat=     1 NSing=     0 JSym2X= 2.
 CoulSu:  requested number of processors reduced to:  17 ShMem   1 Linda.
 New state      1 was old state      3
 Root      1 not converged, maximum delta is    0.099368955233107
 Excitation Energies [eV] at current iteration:
 Root      1 :    11.047678437058400   Change is   -0.000000189378062
 Root      2 :    11.047678486470230   Change is   -0.000000052403693
 Root      3 :    11.047678516842700   Change is   -0.000000091851645
 Root      4 :    11.732727937594950   Change is   -0.000000013238265
 Root      5 :    11.732728046433700   Change is   -0.000000009977735
 Root      6 :    11.732728150891340   Change is   -0.000000013704676
 Iteration    14 Dimension   120 NMult   114 NNew      6
 Estimated number of processors is:   17
 CISAX will form     1 AO SS matrices at one time.
 NMat=     1 NSing=     1 JSym2X= 2.
 CoulSu:  requested number of processors reduced to:  17 ShMem   1 Linda.
 NMat=     1 NSing=     1 JSym2X= 2.
 CoulSu:  requested number of processors reduced to:  17 ShMem   1 Linda.
 NMat=     1 NSing=     1 JSym2X= 2.
 CoulSu:  requested number of processors reduced to:  17 ShMem   1 Linda.
 NMat=     1 NSing=     0 JSym2X= 2.
 CoulSu:  requested number of processors reduced to:  17 ShMem   1 Linda.
 NMat=     1 NSing=     0 JSym2X= 2.
 CoulSu:  requested number of processors reduced to:  17 ShMem   1 Linda.
 NMat=     1 NSing=     0 JSym2X= 2.
 CoulSu:  requested number of processors reduced to:  17 ShMem   1 Linda.
 Root      1 not converged, maximum delta is    0.108008966732626
 Excitation Energies [eV] at current iteration:
 Root      1 :    11.047678402669540   Change is   -0.000000034388863
 Root      2 :    11.047678446132310   Change is   -0.000000040337921
 Root      3 :    11.047678491638890   Change is   -0.000000025203807
 Root      4 :    11.732727926034100   Change is   -0.000000011560853
 Root      5 :    11.732728037890620   Change is   -0.000000008543074
 Root      6 :    11.732728136802500   Change is   -0.000000014088844
 Iteration    15 Dimension   126 NMult   120 NNew      6
 Estimated number of processors is:   17
 CISAX will form     1 AO SS matrices at one time.
 NMat=     1 NSing=     1 JSym2X= 2.
 CoulSu:  requested number of processors reduced to:  17 ShMem   1 Linda.
 NMat=     1 NSing=     1 JSym2X= 2.
 CoulSu:  requested number of processors reduced to:  17 ShMem   1 Linda.
 NMat=     1 NSing=     1 JSym2X= 2.
 CoulSu:  requested number of processors reduced to:  17 ShMem   1 Linda.
 NMat=     1 NSing=     0 JSym2X= 2.
 CoulSu:  requested number of processors reduced to:  17 ShMem   1 Linda.
 NMat=     1 NSing=     0 JSym2X= 2.
 CoulSu:  requested number of processors reduced to:  17 ShMem   1 Linda.
 NMat=     1 NSing=     0 JSym2X= 2.
 CoulSu:  requested number of processors reduced to:  17 ShMem   1 Linda.
 Root      1 not converged, maximum delta is    0.020858491022426
 Excitation Energies [eV] at current iteration:
 Root      1 :    11.047678384141250   Change is   -0.000000018528285
 Root      2 :    11.047678428918760   Change is   -0.000000017213554
 Root      3 :    11.047678486285930   Change is   -0.000000005352961
 Root      4 :    11.732727916414340   Change is   -0.000000009619761
 Root      5 :    11.732728031588650   Change is   -0.000000006301973
 Root      6 :    11.732728124652800   Change is   -0.000000012149698
 Iteration    16 Dimension   132 NMult   126 NNew      6
 Estimated number of processors is:   17
 CISAX will form     1 AO SS matrices at one time.
 NMat=     1 NSing=     1 JSym2X= 2.
 CoulSu:  requested number of processors reduced to:  17 ShMem   1 Linda.
 NMat=     1 NSing=     1 JSym2X= 2.
 CoulSu:  requested number of processors reduced to:  17 ShMem   1 Linda.
 NMat=     1 NSing=     1 JSym2X= 2.
 CoulSu:  requested number of processors reduced to:  17 ShMem   1 Linda.
 NMat=     1 NSing=     0 JSym2X= 2.
 CoulSu:  requested number of processors reduced to:  17 ShMem   1 Linda.
 NMat=     1 NSing=     0 JSym2X= 2.
 CoulSu:  requested number of processors reduced to:  17 ShMem   1 Linda.
 NMat=     1 NSing=     0 JSym2X= 2.
 CoulSu:  requested number of processors reduced to:  17 ShMem   1 Linda.
 Root      1 not converged, maximum delta is    0.005807659007560
 Excitation Energies [eV] at current iteration:
 Root      1 :    11.047678373819350   Change is   -0.000000010321905
 Root      2 :    11.047678415163080   Change is   -0.000000013755678
 Root      3 :    11.047678483080840   Change is   -0.000000003205086
 Root      4 :    11.732727907982290   Change is   -0.000000008432053
 Root      5 :    11.732728019377960   Change is   -0.000000012210686
 Root      6 :    11.732728098724130   Change is   -0.000000025928669
 Convergence on energies, max DE= 2.59D-08.
 Convergence on expansion vectors.
 ***********************************************************************
 Stability analysis using <AA,BB:AA,BB> singles matrix:
 ***********************************************************************
 1PDM for each excited state written to RWF  633
 Ground to excited state transition densities written to RWF  633

 Eigenvectors of the stability matrix:
 
 Eigenvector   1:      Triplet-T1   Eigenvalue= 0.4059947  <S**2>=2.000
      23 -> 26         0.48244
      23 -> 35        -0.22147
      23 -> 42         0.15752
      24 -> 26        -0.15251
      25 -> 26         0.26164
      25 -> 35        -0.12011
 
 Eigenvector   2:      Triplet-T1   Eigenvalue= 0.4059947  <S**2>=2.000
      23 -> 26        -0.30089
      23 -> 35         0.13813
      24 -> 26        -0.29726
      24 -> 35         0.13646
      25 -> 26         0.38152
      25 -> 35        -0.17515
      25 -> 42         0.12457
 
 Eigenvector   3:      Triplet-T1   Eigenvalue= 0.4059947  <S**2>=2.000
      24 -> 26         0.46134
      24 -> 35        -0.21179
      24 -> 42         0.15064
      25 -> 26         0.33233
      25 -> 35        -0.15256
      25 -> 42         0.10851
 
 Eigenvector   4:      Singlet-T1   Eigenvalue= 0.4311698  <S**2>=0.000
      23 -> 26         0.60061
      23 -> 35        -0.19032
      23 -> 42         0.11490
      25 -> 26         0.21589
 
 Eigenvector   5:      Singlet-T1   Eigenvalue= 0.4311698  <S**2>=0.000
      23 -> 26        -0.18823
      24 -> 26        -0.34886
      24 -> 35         0.11055
      25 -> 26         0.50041
      25 -> 35        -0.15857
 
 Eigenvector   6:      Singlet-T1   Eigenvalue= 0.4311698  <S**2>=0.000
      23 -> 26        -0.10670
      24 -> 26         0.53444
      24 -> 35        -0.16935
      24 -> 42         0.10225
      25 -> 26         0.33246
      25 -> 35        -0.10534
 The wavefunction is stable under the perturbations considered.
 Leave Link  914 at Sat Apr 17 20:49:15 2021, MaxMem=   104857600 cpu:           36506.7 elap:             993.4
 (Enter /s/ls4/users/knvvv/bin/g16sse/l508.exe)
 The wavefunction is already stable.
 Leave Link  508 at Sat Apr 17 20:49:15 2021, MaxMem=   104857600 cpu:               2.2 elap:               0.1
 (Enter /s/ls4/users/knvvv/bin/g16sse/l601.exe)
 Copying SCF densities to generalized density rwf, IOpCl= 0 IROHF=0.

 **********************************************************************

            Population analysis using the SCF density.

 **********************************************************************

 Orbital symmetries:
       Occupied  (A1) (T2) (T2) (T2) (A1) (A1) (T2) (T2) (T2) (A1)
                 (T2) (T2) (T2) (A1) (T2) (T2) (T2) (E) (E) (T2)
                 (T2) (T2) (T1) (T1) (T1)
       Virtual   (A1) (T2) (T2) (T2) (T2) (T2) (T2) (E) (E) (A1)
                 (T2) (T2) (T2) (T1) (T1) (T1) (A1) (T2) (T2) (T2)
                 (E) (E) (T2) (T2) (T2) (A1) (T2) (T2) (T2) (A1)
                 (E) (E) (T2) (T2) (T2) (E) (E) (T2) (T2) (T2)
                 (T1) (T1) (T1) (T1) (T1) (T1) (T2) (T2) (T2) (A1)
                 (E) (E) (T2) (T2) (T2) (A1) (T2) (T2) (T2) (E)
                 (E) (T2) (T2) (T2) (T2) (T2) (T2) (T1) (T1) (T1)
                 (A1) (E) (E) (T1) (T1) (T1) (T2) (T2) (T2) (T2)
                 (T2) (T2) (A1) (T2) (T2) (T2) (E) (E) (T1) (T1)
                 (T1) (A1) (T2) (T2) (T2) (T1) (T1) (T1) (E) (E)
                 (T2) (T2) (T2) (T1) (T1) (T1) (A1) (T2) (T2) (T2)
                 (T2) (T2) (T2) (E) (E) (T2) (T2) (T2) (A1) (T1)
                 (T1) (T1) (E) (E) (T2) (T2) (T2) (T2) (T2) (T2)
                 (E) (E) (A1) (T2) (T2) (T2) (T1) (T1) (T1) (A1)
                 (T2) (T2) (T2) (A2) (T1) (T1) (T1) (A1) (T2) (T2)
                 (T2) (A1) (T2) (T2) (T2) (E) (E) (T1) (T1) (T1)
                 (T2) (T2) (T2) (A1) (T2) (T2) (T2) (E) (E) (T2)
                 (T2) (T2) (T1) (T1) (T1) (T1) (T1) (T1) (E) (E)
                 (T2) (T2) (T2) (A1) (E) (E) (T2) (T2) (T2) (T2)
                 (T2) (T2) (T1) (T1) (T1) (E) (E) (T1) (T1) (T1)
                 (T2) (T2) (T2) (E) (E) (A1) (T2) (T2) (T2) (T2)
                 (T2) (T2) (A1) (T2) (T2) (T2) (T1) (T1) (T1) (A2)
                 (T2) (T2) (T2) (T2) (T2) (T2) (E) (E) (T1) (T1)
                 (T1) (A1) (T2) (T2) (T2) (T1) (T1) (T1) (E) (E)
                 (E) (E) (T2) (T2) (T2) (T1) (T1) (T1) (A1) (T2)
                 (T2) (T2) (A2) (T1) (T1) (T1) (T2) (T2) (T2) (A1)
                 (T1) (T1) (T1) (T2) (T2) (T2) (E) (E) (T2) (T2)
                 (T2) (E) (E) (A1) (T2) (T2) (T2) (T1) (T1) (T1)
                 (A1) (T1) (T1) (T1) (T2) (T2) (T2) (E) (E) (T2)
                 (T2) (T2) (T1) (T1) (T1) (T2) (T2) (T2) (E) (E)
                 (A1) (T2) (T2) (T2) (A1) (A1) (T2) (T2) (T2) (A1)
                 (A1) (T2) (T2) (T2) (A1)
 The electronic state is 1-A1.
 Alpha  occ. eigenvalues --  -67.15048 -25.28222 -25.28222 -25.28222 -25.28220
 Alpha  occ. eigenvalues --   -5.67738  -3.99148  -3.99148  -3.99148  -1.41427
 Alpha  occ. eigenvalues --   -1.37826  -1.37826  -1.37826  -0.72165  -0.65112
 Alpha  occ. eigenvalues --   -0.65112  -0.65112  -0.60037  -0.60037  -0.58762
 Alpha  occ. eigenvalues --   -0.58762  -0.58762  -0.55295  -0.55295  -0.55295
 Alpha virt. eigenvalues --   -0.00886   0.03374   0.03374   0.03374   0.07520
 Alpha virt. eigenvalues --    0.07520   0.07520   0.08041   0.08041   0.09502
 Alpha virt. eigenvalues --    0.13000   0.13000   0.13000   0.13665   0.13665
 Alpha virt. eigenvalues --    0.13665   0.14474   0.15481   0.15481   0.15481
 Alpha virt. eigenvalues --    0.20100   0.20100   0.25543   0.25543   0.25543
 Alpha virt. eigenvalues --    0.28024   0.28173   0.28173   0.28173   0.34559
 Alpha virt. eigenvalues --    0.36324   0.36324   0.39619   0.39619   0.39619
 Alpha virt. eigenvalues --    0.45410   0.45410   0.48814   0.48814   0.48814
 Alpha virt. eigenvalues --    0.52132   0.52132   0.52132   0.52911   0.52911
 Alpha virt. eigenvalues --    0.52911   0.57758   0.57758   0.57758   0.59734
 Alpha virt. eigenvalues --    0.61172   0.61172   0.67875   0.67875   0.67875
 Alpha virt. eigenvalues --    0.74650   0.77601   0.77601   0.77601   0.78820
 Alpha virt. eigenvalues --    0.78820   0.82523   0.82523   0.82523   0.85310
 Alpha virt. eigenvalues --    0.85310   0.85310   0.86562   0.86562   0.86562
 Alpha virt. eigenvalues --    0.89224   0.95929   0.95929   1.06359   1.06359
 Alpha virt. eigenvalues --    1.06359   1.06892   1.06892   1.06892   1.16437
 Alpha virt. eigenvalues --    1.16437   1.16437   1.16806   1.49335   1.49335
 Alpha virt. eigenvalues --    1.49335   1.60839   1.60839   1.62830   1.62830
 Alpha virt. eigenvalues --    1.62830   1.68780   1.79601   1.79601   1.79601
 Alpha virt. eigenvalues --    1.81434   1.81434   1.81434   1.84624   1.84624
 Alpha virt. eigenvalues --    1.85470   1.85470   1.85470   1.89027   1.89027
 Alpha virt. eigenvalues --    1.89027   1.95180   1.99071   1.99071   1.99071
 Alpha virt. eigenvalues --    2.00514   2.00514   2.00514   2.13545   2.13545
 Alpha virt. eigenvalues --    2.13617   2.13617   2.13617   2.21207   2.40800
 Alpha virt. eigenvalues --    2.40800   2.40800   2.41627   2.41627   2.51449
 Alpha virt. eigenvalues --    2.51449   2.51449   2.66571   2.66571   2.66571
 Alpha virt. eigenvalues --    2.74455   2.74455   2.97551   2.99660   2.99660
 Alpha virt. eigenvalues --    2.99660   3.05254   3.05254   3.05254   3.21649
 Alpha virt. eigenvalues --    3.78223   3.78223   3.78223   4.12423   4.14744
 Alpha virt. eigenvalues --    4.14744   4.14744   4.15199   4.22805   4.22805
 Alpha virt. eigenvalues --    4.22805   4.38376   4.42302   4.42302   4.42302
 Alpha virt. eigenvalues --    4.44504   4.44504   4.48008   4.48008   4.48008
 Alpha virt. eigenvalues --    4.62554   4.62554   4.62554   4.62706   4.74905
 Alpha virt. eigenvalues --    4.74905   4.74905   4.93392   4.93392   5.01772
 Alpha virt. eigenvalues --    5.01772   5.01772   5.18076   5.18076   5.18076
 Alpha virt. eigenvalues --    5.28101   5.28101   5.28101   5.46170   5.46170
 Alpha virt. eigenvalues --    5.48474   5.48474   5.48474   5.69283   5.70640
 Alpha virt. eigenvalues --    5.70640   5.76572   5.76572   5.76572   5.86965
 Alpha virt. eigenvalues --    5.86965   5.86965   5.92296   5.92296   5.92296
 Alpha virt. eigenvalues --    6.15066   6.15066   6.44705   6.44705   6.44705
 Alpha virt. eigenvalues --    6.64113   6.64113   6.64113   6.95510   6.95510
 Alpha virt. eigenvalues --    7.16561   7.16912   7.16912   7.16912   7.38566
 Alpha virt. eigenvalues --    7.38566   7.38566   7.68707  11.10462  11.10462
 Alpha virt. eigenvalues --   11.10462  11.24089  11.24089  11.24089  11.24973
 Alpha virt. eigenvalues --   11.27392  11.27392  11.27392  11.27998  11.27998
 Alpha virt. eigenvalues --   11.27998  11.28194  11.28194  11.28229  11.28229
 Alpha virt. eigenvalues --   11.28229  11.31587  11.32154  11.32154  11.32154
 Alpha virt. eigenvalues --   11.33324  11.33324  11.33324  11.35301  11.35301
 Alpha virt. eigenvalues --   11.38553  11.38553  11.41733  11.41733  11.41733
 Alpha virt. eigenvalues --   11.47066  11.47066  11.47066  11.52290  12.84454
 Alpha virt. eigenvalues --   12.84454  12.84454  14.36979  14.37932  14.37932
 Alpha virt. eigenvalues --   14.37932  14.41813  14.41813  14.41813  14.48097
 Alpha virt. eigenvalues --   14.53549  14.53549  14.53549  14.56147  14.56147
 Alpha virt. eigenvalues --   14.56147  14.68079  14.68079  14.83088  14.83088
 Alpha virt. eigenvalues --   14.83088  14.86204  14.86204  14.90311  15.08673
 Alpha virt. eigenvalues --   15.08673  15.08673  15.11270  15.11270  15.11270
 Alpha virt. eigenvalues --   15.52646  15.83006  15.83006  15.83006  15.85204
 Alpha virt. eigenvalues --   15.85204  15.85204  15.89891  15.89891  15.96122
 Alpha virt. eigenvalues --   15.96122  15.96122  16.03502  16.03502  16.03502
 Alpha virt. eigenvalues --   16.21337  16.21337  16.21337  16.24708  16.24708
 Alpha virt. eigenvalues --   16.49647  16.53040  16.53040  16.53040  17.33652
 Alpha virt. eigenvalues --   54.46035  54.75555  54.75555  54.75555  58.59457
 Alpha virt. eigenvalues --  283.46027 283.75157 283.75157 283.75157 316.07526
          Condensed to atoms (all electrons):
               1          2          3          4          5
     1  F    8.982023   0.359309  -0.008723  -0.008723  -0.008723
     2  Si   0.359309  11.302110   0.359309   0.359309   0.359309
     3  F   -0.008723   0.359309   8.982023  -0.008723  -0.008723
     4  F   -0.008723   0.359309  -0.008723   8.982023  -0.008723
     5  F   -0.008723   0.359309  -0.008723  -0.008723   8.982023
 Mulliken charges:
               1
     1  F   -0.315163
     2  Si   1.260653
     3  F   -0.315163
     4  F   -0.315163
     5  F   -0.315163
 Sum of Mulliken charges =   0.00000
 Mulliken charges with hydrogens summed into heavy atoms:
               1
     1  F   -0.315163
     2  Si   1.260653
     3  F   -0.315163
     4  F   -0.315163
     5  F   -0.315163
 Electronic spatial extent (au):  <R**2>=            385.4139
 Charge=              0.0000 electrons
 Dipole moment (field-independent basis, Debye):
    X=             -0.0000    Y=              0.0000    Z=              0.0000  Tot=              0.0000
 Quadrupole moment (field-independent basis, Debye-Ang):
   XX=            -32.4520   YY=            -32.4520   ZZ=            -32.4520
   XY=             -0.0000   XZ=             -0.0000   YZ=             -0.0000
 Traceless Quadrupole moment (field-independent basis, Debye-Ang):
   XX=             -0.0000   YY=              0.0000   ZZ=             -0.0000
   XY=             -0.0000   XZ=             -0.0000   YZ=             -0.0000
 Octapole moment (field-independent basis, Debye-Ang**2):
  XXX=             -0.0000  YYY=             -0.0000  ZZZ=              0.0000  XYY=             -0.0000
  XXY=             -0.0000  XXZ=             -0.0000  XZZ=              0.0000  YZZ=             -0.0000
  YYZ=             -0.0000  XYZ=             -4.1603
 Hexadecapole moment (field-independent basis, Debye-Ang**3):
 XXXX=           -122.6505 YYYY=           -122.6505 ZZZZ=           -122.6505 XXXY=             -0.0000
 XXXZ=              0.0000 YYYX=             -0.0000 YYYZ=             -0.0000 ZZZX=              0.0000
 ZZZY=             -0.0000 XXYY=            -42.5721 XXZZ=            -42.5721 YYZZ=            -42.5721
 XXYZ=             -0.0000 YYXZ=              0.0000 ZZXY=             -0.0000
 N-N= 2.718451539419D+02 E-N=-2.187492402854D+03  KE= 6.876245592613D+02
 PrsmSu:  requested number of processors reduced to:  21 ShMem   1 Linda.
 No NMR shielding tensors so no spin-rotation constants.
 Leave Link  601 at Sat Apr 17 20:49:42 2021, MaxMem=   104857600 cpu:            1258.8 elap:              26.9
 (Enter /s/ls4/users/knvvv/bin/g16sse/l9999.exe)

 Test job not archived.
 1\1\GINC-N303\Stability\RM062X\Gen\F4Si1\KNVVV\17-Apr-2021\0\\#P M062X
 /GEN Integral=UltraFineGrid SCF=NoSymm Stable=(RExt, Opt) IOp(1/33=1)\
 \Database calculations.\\0,1\F,0,0.,0.,0.\Si,0,0.,0.,1.56043\F,0,1.471
 1875128,0.,2.0805733333\F,0,-0.7355937564,1.2740857598,2.0805733333\F,
 0,-0.7355937564,-1.2740857598,2.0805733333\\Version=ES64L-G16RevA.03\S
 tate=1-A1\HF=-689.2397928\RMSD=1.504e-09\Dipole=0.,0.,0.\Quadrupole=0.
 ,0.,0.,0.,0.,0.\PG=TD [O(Si1),4C3(F1)]\\@


 Happiness is a conscious choice, not an automatic response.
 -- Mildred Barthel
 Job cpu time:       0 days 13 hours  8 minutes 24.9 seconds.
 Elapsed time:       0 days  0 hours 20 minutes 27.7 seconds.
 File lengths (MBytes):  RWF=    412 Int=      0 D2E=      0 Chk=     28 Scr=      1
 Normal termination of Gaussian 16 at Sat Apr 17 20:49:43 2021.
