 Entering Gaussian System, Link 0=/s/ls4/users/knvvv/bin/g16sse/g16
 Input=data/database/M062X--def2-QZVP--WATER27_H2O.gjf
 Output=data/database/M062X--def2-QZVP--WATER27_H2O.log
 Initial command:
 /s/ls4/users/knvvv/bin/g16sse/l1.exe "/s/ls4/users/knvvv/bin/scratch/Gau-7318.inp" -scrdir="/s/ls4/users/knvvv/bin/scratch/"
 Entering Link 1 = /s/ls4/users/knvvv/bin/g16sse/l1.exe PID=      7319.
  
 Copyright (c) 1988,1990,1992,1993,1995,1998,2003,2009,2016,
            Gaussian, Inc.  All Rights Reserved.
  
 This is part of the Gaussian(R) 16 program.  It is based on
 the Gaussian(R) 09 system (copyright 2009, Gaussian, Inc.),
 the Gaussian(R) 03 system (copyright 2003, Gaussian, Inc.),
 the Gaussian(R) 98 system (copyright 1998, Gaussian, Inc.),
 the Gaussian(R) 94 system (copyright 1995, Gaussian, Inc.),
 the Gaussian 92(TM) system (copyright 1992, Gaussian, Inc.),
 the Gaussian 90(TM) system (copyright 1990, Gaussian, Inc.),
 the Gaussian 88(TM) system (copyright 1988, Gaussian, Inc.),
 the Gaussian 86(TM) system (copyright 1986, Carnegie Mellon
 University), and the Gaussian 82(TM) system (copyright 1983,
 Carnegie Mellon University). Gaussian is a federally registered
 trademark of Gaussian, Inc.
  
 This software contains proprietary and confidential information,
 including trade secrets, belonging to Gaussian, Inc.
  
 This software is provided under written license and may be
 used, copied, transmitted, or stored only in accord with that
 written license.
  
 The following legend is applicable only to US Government
 contracts under FAR:
  
                    RESTRICTED RIGHTS LEGEND
  
 Use, reproduction and disclosure by the US Government is
 subject to restrictions as set forth in subparagraphs (a)
 and (c) of the Commercial Computer Software - Restricted
 Rights clause in FAR 52.227-19.
  
 Gaussian, Inc.
 340 Quinnipiac St., Bldg. 40, Wallingford CT 06492
  
  
 ---------------------------------------------------------------
 Warning -- This program may not be used in any manner that
 competes with the business of Gaussian, Inc. or will provide
 assistance to any competitor of Gaussian, Inc.  The licensee
 of this program is prohibited from giving any competitor of
 Gaussian, Inc. access to this program.  By using this program,
 the user acknowledges that Gaussian, Inc. is engaged in the
 business of creating and licensing software in the field of
 computational chemistry and represents and warrants to the
 licensee that it is not a competitor of Gaussian, Inc. and that
 it will not use this program in any manner prohibited above.
 ---------------------------------------------------------------
  

 Cite this work as:
 Gaussian 16, Revision A.03,
 M. J. Frisch, G. W. Trucks, H. B. Schlegel, G. E. Scuseria, 
 M. A. Robb, J. R. Cheeseman, G. Scalmani, V. Barone, 
 G. A. Petersson, H. Nakatsuji, X. Li, M. Caricato, A. V. Marenich, 
 J. Bloino, B. G. Janesko, R. Gomperts, B. Mennucci, H. P. Hratchian, 
 J. V. Ortiz, A. F. Izmaylov, J. L. Sonnenberg, D. Williams-Young, 
 F. Ding, F. Lipparini, F. Egidi, J. Goings, B. Peng, A. Petrone, 
 T. Henderson, D. Ranasinghe, V. G. Zakrzewski, J. Gao, N. Rega, 
 G. Zheng, W. Liang, M. Hada, M. Ehara, K. Toyota, R. Fukuda, 
 J. Hasegawa, M. Ishida, T. Nakajima, Y. Honda, O. Kitao, H. Nakai, 
 T. Vreven, K. Throssell, J. A. Montgomery, Jr., J. E. Peralta, 
 F. Ogliaro, M. J. Bearpark, J. J. Heyd, E. N. Brothers, K. N. Kudin, 
 V. N. Staroverov, T. A. Keith, R. Kobayashi, J. Normand, 
 K. Raghavachari, A. P. Rendell, J. C. Burant, S. S. Iyengar, 
 J. Tomasi, M. Cossi, J. M. Millam, M. Klene, C. Adamo, R. Cammi, 
 J. W. Ochterski, R. L. Martin, K. Morokuma, O. Farkas, 
 J. B. Foresman, and D. J. Fox, Gaussian, Inc., Wallingford CT, 2016.
 
 ******************************************
 Gaussian 16:  ES64L-G16RevA.03 25-Dec-2016
                18-Apr-2021 
 ******************************************
 %RWF=temp12_50912,70GB
 %nprocshared=48
 Will use up to   48 processors via shared memory.
 Default route: MaxDisk=80GB
 ----------------------------------------------------------------------
 #P M062X/Def2QZVP Integral=UltraFineGrid SCF=NoSymm Stable=(RExt, Opt)
  IOp(1/33=1)
 ----------------------------------------------------------------------
 1/33=1,38=1,172=1/1;
 2/12=2,17=6,18=5,40=1/2;
 3/5=45,7=101,11=2,25=1,30=1,74=-55,75=-5/1,2,3;
 4/9=2/1;
 5/5=2,38=5/2;
 6/7=2,8=2,9=2,10=2,28=1/1;
 8/6=1,10=90,11=11/1;
 9/8=-3,42=1,46=1/14;
 5/5=2,8=3,17=40,38=5/8(-2);
 6/7=2,8=2,9=2,10=2,28=1/1;
 99/5=1,9=1/99;
 Leave Link    1 at Sun Apr 18 05:06:13 2021, MaxMem=           0 cpu:              11.0 elap:               0.2
 (Enter /s/ls4/users/knvvv/bin/g16sse/l101.exe)
 ONIOM data not found on unit 2.
 ----------------------
 Database calculations.
 ----------------------
 TstMul:  ICh=     0
 TstMul:  Mul=     1
 TstMul:  ICh=     0
 TstMul:  Mul=     1
 Symbolic Z-matrix:
 Charge =  0 Multiplicity = 1
 O                     0.        0.       -0.38936 
 H                     0.76298   0.        0.19468 
 H                    -0.76298   0.        0.19468 
 
 RdStrC is calling ZToCFu for IStruc=1 NZ=     3.
 PrtBox:  NBox=     1 Levels=  1 BoxLen=    8.00 SMaxX=        2.88
          Shift=            1.441832            0.000000            0.735786
 Box      1 Number                   0 centers from      1 to      3:
 After GenITR:
 ITRead=  0  0  0
 MicOpt= -1 -1 -1
 ITRead=  0  0  0
 MicOpt= -1 -1 -1
 NAtoms=      3 NQM=        3 NQMF=       0 NMMI=      0 NMMIF=      0
                NMic=       0 NMicF=      0.
                    Isotopes and Nuclear Properties:
 (Nuclear quadrupole moments (NQMom) in fm**2, nuclear magnetic moments (NMagM)
  in nuclear magnetons)

  Atom         1           2           3
 IAtWgt=          16           1           1
 AtmWgt=  15.9949146   1.0078250   1.0078250
 NucSpn=           0           1           1
 AtZEff=  -0.0000000  -0.0000000  -0.0000000
 NQMom=    0.0000000   0.0000000   0.0000000
 NMagM=    0.0000000   2.7928460   2.7928460
 AtZNuc=   8.0000000   1.0000000   1.0000000
 No MM parameters found.
 Leave Link  101 at Sun Apr 18 05:06:13 2021, MaxMem=   104857600 cpu:               6.9 elap:               0.2
 (Enter /s/ls4/users/knvvv/bin/g16sse/l202.exe)
                          Input orientation:                          
 ---------------------------------------------------------------------
 Center     Atomic      Atomic             Coordinates (Angstroms)
 Number     Number       Type             X           Y           Z
 ---------------------------------------------------------------------
      1          8           0        0.000000    0.000000   -0.389361
      2          1           0        0.762984    0.000000    0.194681
      3          1           0       -0.762984    0.000000    0.194681
 ---------------------------------------------------------------------
                    Distance matrix (angstroms):
                    1          2          3
     1  O    0.000000
     2  H    0.960859   0.000000
     3  H    0.960859   1.525969   0.000000
 Stoichiometry    H2O
 Framework group  C2V[C2(O),SGV(H2)]
 Deg. of freedom     2
 Full point group                 C2V     NOp   4
 Largest Abelian subgroup         C2V     NOp   4
 Largest concise Abelian subgroup C2      NOp   2
                         Standard orientation:                         
 ---------------------------------------------------------------------
 Center     Atomic      Atomic             Coordinates (Angstroms)
 Number     Number       Type             X           Y           Z
 ---------------------------------------------------------------------
      1          8           0        0.000000    0.000000    0.116808
      2          1           0        0.000000    0.762984   -0.467233
      3          1           0       -0.000000   -0.762984   -0.467233
 ---------------------------------------------------------------------
 Rotational constants (GHZ):         827.6748169         430.6958591         283.2838710
 Leave Link  202 at Sun Apr 18 05:06:13 2021, MaxMem=   104857600 cpu:               8.2 elap:               0.2
 (Enter /s/ls4/users/knvvv/bin/g16sse/l301.exe)
 Standard basis: def2QZVP (5D, 7F)
 Ernie: Thresh=  0.10000D-02 Tol=  0.10000D-05 Strict=F.
 There are    56 symmetry adapted cartesian basis functions of A1  symmetry.
 There are    19 symmetry adapted cartesian basis functions of A2  symmetry.
 There are    27 symmetry adapted cartesian basis functions of B1  symmetry.
 There are    40 symmetry adapted cartesian basis functions of B2  symmetry.
 There are    44 symmetry adapted basis functions of A1  symmetry.
 There are    17 symmetry adapted basis functions of A2  symmetry.
 There are    23 symmetry adapted basis functions of B1  symmetry.
 There are    33 symmetry adapted basis functions of B2  symmetry.
   117 basis functions,   168 primitive gaussians,   142 cartesian basis functions
     5 alpha electrons        5 beta electrons
       nuclear repulsion energy         9.1585168532 Hartrees.
 IExCor= 4336 DFT=T Ex+Corr=M062X ExCW=0 ScaHFX=  0.540000
 ScaDFX=  1.000000  1.000000  1.000000  1.000000 ScalE2=  1.000000  1.000000
 IRadAn=      5 IRanWt=     -1 IRanGd=            0 ICorTp=0 IEmpDi=  4
 NAtoms=    3 NActive=    3 NUniq=    2 SFac= 2.25D+00 NAtFMM=   60 NAOKFM=F Big=F
 Integral buffers will be    131072 words long.
 Raffenetti 2 integral format.
 Two-electron integral symmetry is turned on.
 Leave Link  301 at Sun Apr 18 05:06:13 2021, MaxMem=   104857600 cpu:               5.5 elap:               0.1
 (Enter /s/ls4/users/knvvv/bin/g16sse/l302.exe)
 NPDir=0 NMtPBC=     1 NCelOv=     1 NCel=       1 NClECP=     1 NCelD=      1
         NCelK=      1 NCelE2=     1 NClLst=     1 CellRange=     0.0.
 One-electron integrals computed using PRISM.
 One-electron integral symmetry used in STVInt
 PrsmSu:  requested number of processors reduced to:   4 ShMem   1 Linda.
 PrsmSu:  requested number of processors reduced to:  21 ShMem   1 Linda.
   4 Symmetry operations used in ECPInt.
 ECPInt:  NShTT=     703 NPrTT=    1591 LenC2=     704 LenP2D=    1543.
 LDataN:  DoStor=T MaxTD1= 8 Len=  415
 Number of processors reduced to  42 by ecpmxn.
 NBasis=   117 RedAO= T EigKep=  3.16D-04  NBF=    44    17    23    33
 NBsUse=   117 1.00D-06 EigRej= -1.00D+00 NBFU=    44    17    23    33
 Precomputing XC quadrature grid using
 IXCGrd= 4 IRadAn=           5 IRanWt=          -1 IRanGd=           0 AccXCQ= 0.00D+00.
 Generated NRdTot=       0 NPtTot=           0 NUsed=           0 NTot=          32
 NSgBfM=   142   142   142   142   142 MxSgAt=     3 MxSgA2=     3.
 Leave Link  302 at Sun Apr 18 05:06:19 2021, MaxMem=   104857600 cpu:             246.0 elap:               5.3
 (Enter /s/ls4/users/knvvv/bin/g16sse/l303.exe)
 DipDrv:  MaxL=1.
 Leave Link  303 at Sun Apr 18 05:06:19 2021, MaxMem=   104857600 cpu:              20.2 elap:               0.5
 (Enter /s/ls4/users/knvvv/bin/g16sse/l401.exe)
 SCF N**3 symmetry information disabled.
 ExpMin= 8.03D-02 ExpMax= 1.17D+05 ExpMxC= 1.13D+03 IAcc=3 IRadAn=         5 AccDes= 0.00D+00
 Harris functional with IExCor= 1009 and IRadAn=       5 diagonalized for initial guess.
 HarFok:  IExCor= 1009 AccDes= 0.00D+00 IRadAn=         5 IDoV= 1 UseB2=F ITyADJ=14
 ICtDFT=  3500011 ScaDFX=  1.000000  1.000000  1.000000  1.000000
 FoFCou: FMM=F IPFlag=           0 FMFlag=      100000 FMFlg1=           0
         NFxFlg=           0 DoJE=T BraDBF=F KetDBF=T FulRan=T
         wScrn=  0.000000 ICntrl=       500 IOpCl=  0 I1Cent=   200000004 NGrid=           0
         NMat0=    1 NMatS0=      1 NMatT0=    0 NMatD0=    1 NMtDS0=    0 NMtDT0=    0
 Petite list used in FoFCou.
 CoulSu:  requested number of processors reduced to:  21 ShMem   1 Linda.
 CoulSu:  requested number of processors reduced to:  21 ShMem   1 Linda.
 CoulSu:  requested number of processors reduced to:  21 ShMem   1 Linda.
 CoulSu:  requested number of processors reduced to:  21 ShMem   1 Linda.
 Harris En= -76.4318395550639    
 JPrj=0 DoOrth=F DoCkMO=F.
 Initial guess orbital symmetries:
       Occupied  (A1) (A1) (B2) (A1) (B1)
       Virtual   (A1) (B2) (A1) (B2) (B1) (A1) (B2) (A1) (A2) (B1)
                 (A1) (B2) (A1) (B2) (B2) (A1) (A1) (B1) (A2) (B1)
                 (A1) (B2) (A1) (B1) (A1) (B2) (A2) (B2) (B1) (B2)
                 (A1) (A2) (A1) (B2) (A2) (B1) (A1) (B2) (A1) (B2)
                 (A1) (B1) (A2) (B1) (A1) (A1) (B2) (B1) (A1) (B2)
                 (A2) (A1) (B2) (B1) (B2) (A1) (B1) (A1) (A2) (B2)
                 (A2) (A1) (B2) (B2) (B1) (A2) (A1) (B1) (B2) (A1)
                 (B2) (A1) (B1) (B1) (A2) (A1) (B2) (A2) (A1) (B2)
                 (A1) (A2) (B2) (B1) (A1) (B2) (A1) (B1) (A1) (A2)
                 (B2) (A1) (A2) (B2) (B1) (B1) (A1) (B1) (A1) (A2)
                 (B2) (A1) (B2) (A1) (B2) (B1) (A2) (A1) (B2) (A1)
                 (A1) (A1)
 The electronic state of the initial guess is 1-A1.
 Leave Link  401 at Sun Apr 18 05:06:22 2021, MaxMem=   104857600 cpu:             106.8 elap:               2.5
 (Enter /s/ls4/users/knvvv/bin/g16sse/l502.exe)
 Keep R1 ints in memory in symmetry-blocked form, NReq=78080115.
 FoFCou: FMM=F IPFlag=           0 FMFlag=           0 FMFlg1=           0
         NFxFlg=           0 DoJE=F BraDBF=F KetDBF=F FulRan=T
         wScrn=  0.000000 ICntrl=       600 IOpCl=  0 I1Cent=           0 NGrid=           0
         NMat0=    1 NMatS0=   6903 NMatT0=    0 NMatD0=    1 NMtDS0=    0 NMtDT0=    0
 Petite list used in FoFCou.
 CoulSu:  requested number of processors reduced to:  17 ShMem   1 Linda.
 Closed shell SCF:
 Using DIIS extrapolation, IDIIS=  1040.
 NGot=   104857600 LenX=    98756703 LenY=    98736098
 Requested convergence on RMS density matrix=1.00D-08 within 128 cycles.
 Requested convergence on MAX density matrix=1.00D-06.
 Requested convergence on             energy=1.00D-06.
 No special actions if energy rises.
 Integral accuracy reduced to 1.0D-05 until final iterations.

 Cycle   1  Pass 0  IDiag  1:
 E= -76.3567031713905    
 DIIS: error= 4.93D-02 at cycle   1 NSaved=   1.
 NSaved= 1 IEnMin= 1 EnMin= -76.3567031713905     IErMin= 1 ErrMin= 4.93D-02
 ErrMax= 4.93D-02  0.00D+00 EMaxC= 1.00D-01 BMatC= 1.46D-01 BMatP= 1.46D-01
 IDIUse=3 WtCom= 5.07D-01 WtEn= 4.93D-01
 Coeff-Com:  0.100D+01
 Coeff-En:   0.100D+01
 Coeff:      0.100D+01
 Gap=     0.296 Goal=   None    Shift=    0.000
 GapD=    0.296 DampG=1.000 DampE=0.500 DampFc=0.5000 IDamp=-1.
 Damping current iteration by 5.00D-01
 RMSDP=2.21D-03 MaxDP=7.12D-02              OVMax= 1.65D-01

 Cycle   2  Pass 0  IDiag  1:
 E= -76.3908021286983     Delta-E=       -0.034098957308 Rises=F Damp=T
 DIIS: error= 2.26D-02 at cycle   2 NSaved=   2.
 NSaved= 2 IEnMin= 2 EnMin= -76.3908021286983     IErMin= 2 ErrMin= 2.26D-02
 ErrMax= 2.26D-02  0.00D+00 EMaxC= 1.00D-01 BMatC= 1.32D-02 BMatP= 1.46D-01
 IDIUse=3 WtCom= 7.74D-01 WtEn= 2.26D-01
 Coeff-Com:  0.485D-01 0.952D+00
 Coeff-En:   0.162D+00 0.838D+00
 Coeff:      0.742D-01 0.926D+00
 Gap=     0.436 Goal=   None    Shift=    0.000
 RMSDP=4.99D-04 MaxDP=1.05D-02 DE=-3.41D-02 OVMax= 9.50D-02

 Cycle   3  Pass 0  IDiag  1:
 E= -76.4360335448954     Delta-E=       -0.045231416197 Rises=F Damp=F
 DIIS: error= 2.56D-03 at cycle   3 NSaved=   3.
 NSaved= 3 IEnMin= 3 EnMin= -76.4360335448954     IErMin= 3 ErrMin= 2.56D-03
 ErrMax= 2.56D-03  0.00D+00 EMaxC= 1.00D-01 BMatC= 2.00D-04 BMatP= 1.32D-02
 IDIUse=3 WtCom= 9.74D-01 WtEn= 2.56D-02
 Coeff-Com: -0.312D-01 0.593D-01 0.972D+00
 Coeff-En:   0.000D+00 0.000D+00 0.100D+01
 Coeff:     -0.304D-01 0.578D-01 0.973D+00
 Gap=     0.438 Goal=   None    Shift=    0.000
 RMSDP=4.49D-05 MaxDP=2.32D-03 DE=-4.52D-02 OVMax= 3.76D-03

 Cycle   4  Pass 0  IDiag  1:
 E= -76.4361708027660     Delta-E=       -0.000137257871 Rises=F Damp=F
 DIIS: error= 1.78D-04 at cycle   4 NSaved=   4.
 NSaved= 4 IEnMin= 4 EnMin= -76.4361708027660     IErMin= 4 ErrMin= 1.78D-04
 ErrMax= 1.78D-04  0.00D+00 EMaxC= 1.00D-01 BMatC= 2.70D-06 BMatP= 2.00D-04
 IDIUse=3 WtCom= 9.98D-01 WtEn= 1.78D-03
 Coeff-Com: -0.180D-03-0.275D-03 0.693D-01 0.931D+00
 Coeff-En:   0.000D+00 0.000D+00 0.000D+00 0.100D+01
 Coeff:     -0.180D-03-0.274D-03 0.692D-01 0.931D+00
 Gap=     0.439 Goal=   None    Shift=    0.000
 RMSDP=1.19D-05 MaxDP=2.55D-04 DE=-1.37D-04 OVMax= 4.86D-04

 Cycle   5  Pass 0  IDiag  1:
 E= -76.4361723138256     Delta-E=       -0.000001511060 Rises=F Damp=F
 DIIS: error= 3.94D-05 at cycle   5 NSaved=   5.
 NSaved= 5 IEnMin= 5 EnMin= -76.4361723138256     IErMin= 5 ErrMin= 3.94D-05
 ErrMax= 3.94D-05  0.00D+00 EMaxC= 1.00D-01 BMatC= 6.92D-08 BMatP= 2.70D-06
 IDIUse=1 WtCom= 1.00D+00 WtEn= 0.00D+00
 Coeff-Com:  0.131D-02-0.237D-02-0.303D-01 0.352D-01 0.996D+00
 Coeff:      0.131D-02-0.237D-02-0.303D-01 0.352D-01 0.996D+00
 Gap=     0.439 Goal=   None    Shift=    0.000
 RMSDP=2.88D-06 MaxDP=7.38D-05 DE=-1.51D-06 OVMax= 1.36D-04

 Initial convergence to 1.0D-05 achieved.  Increase integral accuracy.
 Cycle   6  Pass 1  IDiag  1:
 E= -76.4361916410375     Delta-E=       -0.000019327212 Rises=F Damp=F
 DIIS: error= 1.01D-04 at cycle   1 NSaved=   1.
 NSaved= 1 IEnMin= 1 EnMin= -76.4361916410375     IErMin= 1 ErrMin= 1.01D-04
 ErrMax= 1.01D-04  0.00D+00 EMaxC= 1.00D-01 BMatC= 3.62D-07 BMatP= 3.62D-07
 IDIUse=3 WtCom= 9.99D-01 WtEn= 1.01D-03
 Coeff-Com:  0.100D+01
 Coeff-En:   0.100D+01
 Coeff:      0.100D+01
 Gap=     0.439 Goal=   None    Shift=    0.000
 RMSDP=2.88D-06 MaxDP=7.38D-05 DE=-1.93D-05 OVMax= 5.53D-05

 Cycle   7  Pass 1  IDiag  1:
 E= -76.4361917332702     Delta-E=       -0.000000092233 Rises=F Damp=F
 DIIS: error= 6.47D-06 at cycle   2 NSaved=   2.
 NSaved= 2 IEnMin= 2 EnMin= -76.4361917332702     IErMin= 2 ErrMin= 6.47D-06
 ErrMax= 6.47D-06  0.00D+00 EMaxC= 1.00D-01 BMatC= 1.92D-09 BMatP= 3.62D-07
 IDIUse=1 WtCom= 1.00D+00 WtEn= 0.00D+00
 Coeff-Com: -0.621D-01 0.106D+01
 Coeff:     -0.621D-01 0.106D+01
 Gap=     0.439 Goal=   None    Shift=    0.000
 RMSDP=3.76D-07 MaxDP=1.07D-05 DE=-9.22D-08 OVMax= 1.28D-05

 Cycle   8  Pass 1  IDiag  1:
 E= -76.4361917340010     Delta-E=       -0.000000000731 Rises=F Damp=F
 DIIS: error= 2.21D-06 at cycle   3 NSaved=   3.
 NSaved= 3 IEnMin= 3 EnMin= -76.4361917340010     IErMin= 3 ErrMin= 2.21D-06
 ErrMax= 2.21D-06  0.00D+00 EMaxC= 1.00D-01 BMatC= 2.27D-10 BMatP= 1.92D-09
 IDIUse=1 WtCom= 1.00D+00 WtEn= 0.00D+00
 Coeff-Com: -0.222D-01 0.339D+00 0.683D+00
 Coeff:     -0.222D-01 0.339D+00 0.683D+00
 Gap=     0.439 Goal=   None    Shift=    0.000
 RMSDP=7.82D-08 MaxDP=3.11D-06 DE=-7.31D-10 OVMax= 5.35D-06

 Cycle   9  Pass 1  IDiag  1:
 E= -76.4361917341117     Delta-E=       -0.000000000111 Rises=F Damp=F
 DIIS: error= 1.03D-06 at cycle   4 NSaved=   4.
 NSaved= 4 IEnMin= 4 EnMin= -76.4361917341117     IErMin= 4 ErrMin= 1.03D-06
 ErrMax= 1.03D-06  0.00D+00 EMaxC= 1.00D-01 BMatC= 5.21D-11 BMatP= 2.27D-10
 IDIUse=1 WtCom= 1.00D+00 WtEn= 0.00D+00
 Coeff-Com:  0.770D-03-0.386D-01 0.308D+00 0.730D+00
 Coeff:      0.770D-03-0.386D-01 0.308D+00 0.730D+00
 Gap=     0.439 Goal=   None    Shift=    0.000
 RMSDP=2.86D-08 MaxDP=1.01D-06 DE=-1.11D-10 OVMax= 2.44D-06

 Cycle  10  Pass 1  IDiag  1:
 E= -76.4361917341467     Delta-E=       -0.000000000035 Rises=F Damp=F
 DIIS: error= 7.50D-08 at cycle   5 NSaved=   5.
 NSaved= 5 IEnMin= 5 EnMin= -76.4361917341467     IErMin= 5 ErrMin= 7.50D-08
 ErrMax= 7.50D-08  0.00D+00 EMaxC= 1.00D-01 BMatC= 3.06D-13 BMatP= 5.21D-11
 IDIUse=1 WtCom= 1.00D+00 WtEn= 0.00D+00
 Coeff-Com:  0.332D-03-0.215D-02-0.675D-01-0.787D-01 0.115D+01
 Coeff:      0.332D-03-0.215D-02-0.675D-01-0.787D-01 0.115D+01
 Gap=     0.439 Goal=   None    Shift=    0.000
 RMSDP=5.25D-09 MaxDP=1.33D-07 DE=-3.51D-11 OVMax= 5.22D-07

 SCF Done:  E(RM062X) =  -76.4361917341     A.U. after   10 cycles
            NFock= 10  Conv=0.52D-08     -V/T= 2.0033
 KE= 7.618734114700D+01 PE=-1.991766092477D+02 EE= 3.739455951342D+01
 Leave Link  502 at Sun Apr 18 05:07:02 2021, MaxMem=   104857600 cpu:            1896.1 elap:              40.7
 (Enter /s/ls4/users/knvvv/bin/g16sse/l601.exe)
 Copying SCF densities to generalized density rwf, IOpCl= 0 IROHF=0.

 **********************************************************************

            Population analysis using the SCF density.

 **********************************************************************

 Orbital symmetries:
       Occupied  (A1) (A1) (B2) (A1) (B1)
       Virtual   (A1) (B2) (A1) (B2) (B1) (A1) (B2) (A1) (A2) (B1)
                 (A1) (B2) (A1) (B2) (B2) (A1) (B1) (A1) (A2) (A1)
                 (B1) (B2) (A1) (B1) (A1) (B2) (A2) (B2) (B1) (A1)
                 (B2) (A2) (A1) (B2) (A2) (B1) (A1) (B2) (B2) (A1)
                 (A1) (B1) (A2) (A1) (B1) (B2) (A1) (B1) (A1) (B2)
                 (A2) (A1) (B2) (B1) (B2) (A1) (B1) (A1) (A2) (B2)
                 (A2) (A1) (B2) (B1) (B2) (A2) (A1) (B1) (B2) (A1)
                 (B2) (A1) (B1) (B1) (A1) (A2) (B2) (A2) (A1) (B2)
                 (A1) (A2) (B2) (B1) (B2) (A1) (A1) (B1) (A1) (A2)
                 (B2) (A1) (A2) (B2) (B1) (B1) (A1) (B1) (A1) (B2)
                 (A2) (A1) (B2) (B2) (A1) (B1) (A2) (A1) (B2) (A1)
                 (A1) (A1)
 The electronic state is 1-A1.
 Alpha  occ. eigenvalues --  -19.62697  -1.13431  -0.60977  -0.47443  -0.40189
 Alpha virt. eigenvalues --    0.03688   0.08459   0.26908   0.29645   0.30071
 Alpha virt. eigenvalues --    0.33592   0.41633   0.48409   0.54485   0.60433
 Alpha virt. eigenvalues --    0.62997   0.79132   0.91384   0.93707   1.01569
 Alpha virt. eigenvalues --    1.05553   1.29480   1.29874   1.31658   1.38351
 Alpha virt. eigenvalues --    1.40091   1.44809   1.79699   1.87780   1.97695
 Alpha virt. eigenvalues --    1.99340   2.07969   2.24987   2.27023   2.29810
 Alpha virt. eigenvalues --    2.30794   2.37615   2.49485   2.54498   2.62223
 Alpha virt. eigenvalues --    2.64721   2.83492   2.92643   3.08225   3.10788
 Alpha virt. eigenvalues --    3.20048   3.66888   3.79656   3.82006   3.84390
 Alpha virt. eigenvalues --    4.00650   4.06309   4.18335   4.19756   4.37741
 Alpha virt. eigenvalues --    4.55874   4.71208   4.75152   5.22919   5.28654
 Alpha virt. eigenvalues --    5.29461   5.61612   5.79667   5.85810   5.93353
 Alpha virt. eigenvalues --    6.28438   6.41579   6.63158   6.94457   6.95441
 Alpha virt. eigenvalues --    7.00439   7.00882   7.10717   7.16647   7.19526
 Alpha virt. eigenvalues --    7.24233   7.31296   7.51256   7.63447   7.68142
 Alpha virt. eigenvalues --    7.70652   7.71147   7.80753   7.91966   8.12796
 Alpha virt. eigenvalues --    8.30246   8.40427   8.54318   8.59400   8.84795
 Alpha virt. eigenvalues --    8.85465   9.65853   9.66970  10.06357  10.13791
 Alpha virt. eigenvalues --   10.52288  10.53033  10.73959  10.83362  10.94349
 Alpha virt. eigenvalues --   11.13850  11.25436  11.54658  11.56761  11.65635
 Alpha virt. eigenvalues --   11.69052  12.02258  12.60114  13.26210  13.35385
 Alpha virt. eigenvalues --   13.44064  13.86171  14.21967  16.31140  16.35489
 Alpha virt. eigenvalues --   48.23596 251.29887
          Condensed to atoms (all electrons):
               1          2          3
     1  O    7.944379   0.326629   0.326629
     2  H    0.326629   0.384970  -0.010418
     3  H    0.326629  -0.010418   0.384970
 Mulliken charges:
               1
     1  O   -0.597638
     2  H    0.298819
     3  H    0.298819
 Sum of Mulliken charges =  -0.00000
 Mulliken charges with hydrogens summed into heavy atoms:
               1
     1  O   -0.000000
 Electronic spatial extent (au):  <R**2>=             19.7192
 Charge=             -0.0000 electrons
 Dipole moment (field-independent basis, Debye):
    X=             -0.0000    Y=             -0.0000    Z=             -1.9380  Tot=              1.9380
 Quadrupole moment (field-independent basis, Debye-Ang):
   XX=             -7.6111   YY=             -4.3387   ZZ=             -6.3594
   XY=              0.0000   XZ=              0.0000   YZ=              0.0000
 Traceless Quadrupole moment (field-independent basis, Debye-Ang):
   XX=             -1.5081   YY=              1.7644   ZZ=             -0.2564
   XY=              0.0000   XZ=              0.0000   YZ=              0.0000
 Octapole moment (field-independent basis, Debye-Ang**2):
  XXX=              0.0000  YYY=              0.0000  ZZZ=             -1.1441  XYY=             -0.0000
  XXY=              0.0000  XXZ=             -0.2721  XZZ=              0.0000  YZZ=             -0.0000
  YYZ=             -1.3706  XYZ=             -0.0000
 Hexadecapole moment (field-independent basis, Debye-Ang**3):
 XXXX=             -6.7336 YYYY=             -6.2260 ZZZZ=             -7.3896 XXXY=             -0.0000
 XXXZ=             -0.0000 YYYX=             -0.0000 YYYZ=             -0.0000 ZZZX=             -0.0000
 ZZZY=             -0.0000 XXYY=             -2.4938 XXZZ=             -2.4067 YYZZ=             -1.9376
 XXYZ=             -0.0000 YYXZ=              0.0000 ZZXY=              0.0000
 N-N= 9.158516853166D+00 E-N=-1.991766069653D+02  KE= 7.618734114700D+01
 PrsmSu:  requested number of processors reduced to:  21 ShMem   1 Linda.
 No NMR shielding tensors so no spin-rotation constants.
 Leave Link  601 at Sun Apr 18 05:07:04 2021, MaxMem=   104857600 cpu:              84.7 elap:               1.9
 (Enter /s/ls4/users/knvvv/bin/g16sse/l801.exe)
 DoSCS=F DFT=T ScalE2(SS,OS)=  1.000000  1.000000
 Range of M.O.s used for correlation:     1   117
 NBasis=   117 NAE=     5 NBE=     5 NFC=     0 NFV=     0
 NROrb=    117 NOA=     5 NOB=     5 NVA=   112 NVB=   112

 **** Warning!!: The largest alpha MO coefficient is  0.15733872D+02

 Leave Link  801 at Sun Apr 18 05:07:04 2021, MaxMem=   104857600 cpu:               3.1 elap:               0.1
 (Enter /s/ls4/users/knvvv/bin/g16sse/l914.exe)
 RHF ground state
 Doing stability rather than CIS.
 Two-electron integrals replicated using symmetry.
 MDV=   104857600 DFT=T DoStab=T Mixed=T DoRPA=F DoScal=F NonHer=F
 Making orbital integer symmetry assigments:
 Orbital symmetries:
       Occupied  (A1) (A1) (B2) (A1) (B1)
       Virtual   (A1) (B2) (A1) (B2) (B1) (A1) (B2) (A1) (A2) (B1)
                 (A1) (B2) (A1) (B2) (B2) (A1) (B1) (A1) (A2) (A1)
                 (B1) (B2) (A1) (B1) (A1) (B2) (A2) (B2) (B1) (A1)
                 (B2) (A2) (A1) (B2) (A2) (B1) (A1) (B2) (B2) (A1)
                 (A1) (B1) (A2) (A1) (B1) (B2) (A1) (B1) (A1) (B2)
                 (A2) (A1) (B2) (B1) (B2) (A1) (B1) (A1) (A2) (B2)
                 (A2) (A1) (B2) (B1) (B2) (A2) (A1) (B1) (B2) (A1)
                 (B2) (A1) (B1) (B1) (A1) (A2) (B2) (A2) (A1) (B2)
                 (A1) (A2) (B2) (B1) (B2) (A1) (A1) (B1) (A1) (A2)
                 (B2) (A1) (A2) (B2) (B1) (B1) (A1) (B1) (A1) (B2)
                 (A2) (A1) (B2) (B2) (A1) (B1) (A2) (A1) (B2) (A1)
                 (A1) (A1)
    24 initial guesses have been made.
 Convergence on wavefunction:    0.001000000000000
 Davidson Disk Diagonalization:  ConvIn= 1.00D-03 SkipCon=T Conv= 1.00D-03.
 Max sub-space:  2000 roots to seek:    24 dimension of matrix:         1120
 Iteration     1 Dimension    24 NMult     0 NNew     24
 Estimated number of processors is:   20
 CISAX will form     1 AO SS matrices at one time.
 NMat=     1 NSing=     1 JSym2X= 2.
 FoFJK:  IHMeth= 1 ICntrl=       0 DoSepK=F KAlg= 0 I1Cent=           0 FoldK=F
 IRaf= 990000000 NMat=       1 IRICut=       1 DoRegI=T DoRafI=F ISym2E= 2 IDoP0=0 IntGTp=1.
 FoFCou: FMM=F IPFlag=           0 FMFlag=      100000 FMFlg1=           0
         NFxFlg=           0 DoJE=F BraDBF=F KetDBF=F FulRan=T
         wScrn=  0.000000 ICntrl=         0 IOpCl=  0 I1Cent=           0 NGrid=           0
         NMat0=    1 NMatS0=      1 NMatT0=    0 NMatD0=    1 NMtDS0=    0 NMtDT0=    0
 Integrals replicated using symmetry in FoFCou.
 CoulSu:  requested number of processors reduced to:  20 ShMem   1 Linda.
 NMat=     1 NSing=     1 JSym2X= 2.
 CoulSu:  requested number of processors reduced to:  20 ShMem   1 Linda.
 NMat=     1 NSing=     1 JSym2X= 2.
 CoulSu:  requested number of processors reduced to:  20 ShMem   1 Linda.
 NMat=     1 NSing=     1 JSym2X= 2.
 CoulSu:  requested number of processors reduced to:  20 ShMem   1 Linda.
 NMat=     1 NSing=     1 JSym2X= 2.
 CoulSu:  requested number of processors reduced to:  20 ShMem   1 Linda.
 NMat=     1 NSing=     1 JSym2X= 2.
 CoulSu:  requested number of processors reduced to:  20 ShMem   1 Linda.
 NMat=     1 NSing=     1 JSym2X= 2.
 CoulSu:  requested number of processors reduced to:  20 ShMem   1 Linda.
 NMat=     1 NSing=     1 JSym2X= 2.
 CoulSu:  requested number of processors reduced to:  20 ShMem   1 Linda.
 NMat=     1 NSing=     1 JSym2X= 2.
 CoulSu:  requested number of processors reduced to:  20 ShMem   1 Linda.
 NMat=     1 NSing=     1 JSym2X= 2.
 CoulSu:  requested number of processors reduced to:  20 ShMem   1 Linda.
 NMat=     1 NSing=     1 JSym2X= 2.
 CoulSu:  requested number of processors reduced to:  20 ShMem   1 Linda.
 NMat=     1 NSing=     1 JSym2X= 2.
 CoulSu:  requested number of processors reduced to:  20 ShMem   1 Linda.
 NMat=     1 NSing=     0 JSym2X= 2.
 CoulSu:  requested number of processors reduced to:  20 ShMem   1 Linda.
 NMat=     1 NSing=     0 JSym2X= 2.
 CoulSu:  requested number of processors reduced to:  20 ShMem   1 Linda.
 NMat=     1 NSing=     0 JSym2X= 2.
 CoulSu:  requested number of processors reduced to:  20 ShMem   1 Linda.
 NMat=     1 NSing=     0 JSym2X= 2.
 CoulSu:  requested number of processors reduced to:  20 ShMem   1 Linda.
 NMat=     1 NSing=     0 JSym2X= 2.
 CoulSu:  requested number of processors reduced to:  20 ShMem   1 Linda.
 NMat=     1 NSing=     0 JSym2X= 2.
 CoulSu:  requested number of processors reduced to:  20 ShMem   1 Linda.
 NMat=     1 NSing=     0 JSym2X= 2.
 CoulSu:  requested number of processors reduced to:  20 ShMem   1 Linda.
 NMat=     1 NSing=     0 JSym2X= 2.
 CoulSu:  requested number of processors reduced to:  20 ShMem   1 Linda.
 NMat=     1 NSing=     0 JSym2X= 2.
 CoulSu:  requested number of processors reduced to:  20 ShMem   1 Linda.
 NMat=     1 NSing=     0 JSym2X= 2.
 CoulSu:  requested number of processors reduced to:  20 ShMem   1 Linda.
 NMat=     1 NSing=     0 JSym2X= 2.
 CoulSu:  requested number of processors reduced to:  20 ShMem   1 Linda.
 NMat=     1 NSing=     0 JSym2X= 2.
 CoulSu:  requested number of processors reduced to:  20 ShMem   1 Linda.
 New state      1 was old state      2
 Excitation Energies [eV] at current iteration:
 Root      1 :     7.685339661266955
 Root      2 :     8.266180128426939
 Root      3 :     9.726766374522233
 Root      4 :     9.874335459595921
 Root      5 :    10.092626481438420
 Root      6 :    10.528416213061440
 Root      7 :    11.741847265279640
 Root      8 :    12.212225887757310
 Root      9 :    13.442549497399840
 Root     10 :    13.949462767051130
 Root     11 :    14.076489767766050
 Root     12 :    14.103522904627970
 Root     13 :    14.153347127938760
 Root     14 :    14.449750152404640
 Root     15 :    14.534680932441610
 Root     16 :    14.829957187853830
 Root     17 :    15.155005939237990
 Root     18 :    15.277145606639190
 Root     19 :    15.753446490899740
 Root     20 :    16.050299676178590
 Root     21 :    16.094821464354630
 Root     22 :    16.174195218342590
 Root     23 :    18.211802906491420
 Root     24 :    24.466745765635770
 Iteration     2 Dimension    48 NMult    24 NNew     24
 Estimated number of processors is:   20
 CISAX will form     1 AO SS matrices at one time.
 NMat=     1 NSing=     1 JSym2X= 2.
 CoulSu:  requested number of processors reduced to:  20 ShMem   1 Linda.
 NMat=     1 NSing=     1 JSym2X= 2.
 CoulSu:  requested number of processors reduced to:  20 ShMem   1 Linda.
 NMat=     1 NSing=     1 JSym2X= 2.
 CoulSu:  requested number of processors reduced to:  20 ShMem   1 Linda.
 NMat=     1 NSing=     1 JSym2X= 2.
 CoulSu:  requested number of processors reduced to:  20 ShMem   1 Linda.
 NMat=     1 NSing=     1 JSym2X= 2.
 CoulSu:  requested number of processors reduced to:  20 ShMem   1 Linda.
 NMat=     1 NSing=     1 JSym2X= 2.
 CoulSu:  requested number of processors reduced to:  20 ShMem   1 Linda.
 NMat=     1 NSing=     1 JSym2X= 2.
 CoulSu:  requested number of processors reduced to:  20 ShMem   1 Linda.
 NMat=     1 NSing=     1 JSym2X= 2.
 CoulSu:  requested number of processors reduced to:  20 ShMem   1 Linda.
 NMat=     1 NSing=     1 JSym2X= 2.
 CoulSu:  requested number of processors reduced to:  20 ShMem   1 Linda.
 NMat=     1 NSing=     1 JSym2X= 2.
 CoulSu:  requested number of processors reduced to:  20 ShMem   1 Linda.
 NMat=     1 NSing=     1 JSym2X= 2.
 CoulSu:  requested number of processors reduced to:  20 ShMem   1 Linda.
 NMat=     1 NSing=     1 JSym2X= 2.
 CoulSu:  requested number of processors reduced to:  20 ShMem   1 Linda.
 NMat=     1 NSing=     0 JSym2X= 2.
 CoulSu:  requested number of processors reduced to:  20 ShMem   1 Linda.
 NMat=     1 NSing=     0 JSym2X= 2.
 CoulSu:  requested number of processors reduced to:  20 ShMem   1 Linda.
 NMat=     1 NSing=     0 JSym2X= 2.
 CoulSu:  requested number of processors reduced to:  20 ShMem   1 Linda.
 NMat=     1 NSing=     0 JSym2X= 2.
 CoulSu:  requested number of processors reduced to:  20 ShMem   1 Linda.
 NMat=     1 NSing=     0 JSym2X= 2.
 CoulSu:  requested number of processors reduced to:  20 ShMem   1 Linda.
 NMat=     1 NSing=     0 JSym2X= 2.
 CoulSu:  requested number of processors reduced to:  20 ShMem   1 Linda.
 NMat=     1 NSing=     0 JSym2X= 2.
 CoulSu:  requested number of processors reduced to:  20 ShMem   1 Linda.
 NMat=     1 NSing=     0 JSym2X= 2.
 CoulSu:  requested number of processors reduced to:  20 ShMem   1 Linda.
 NMat=     1 NSing=     0 JSym2X= 2.
 CoulSu:  requested number of processors reduced to:  20 ShMem   1 Linda.
 NMat=     1 NSing=     0 JSym2X= 2.
 CoulSu:  requested number of processors reduced to:  20 ShMem   1 Linda.
 NMat=     1 NSing=     0 JSym2X= 2.
 CoulSu:  requested number of processors reduced to:  20 ShMem   1 Linda.
 NMat=     1 NSing=     0 JSym2X= 2.
 CoulSu:  requested number of processors reduced to:  20 ShMem   1 Linda.
 Root      1 not converged, maximum delta is    0.058379632308178
 Excitation Energies [eV] at current iteration:
 Root      1 :     7.370020066291608   Change is   -0.315319594975347
 Root      2 :     8.168670736678981   Change is   -0.097509391747957
 Root      3 :     9.208798410784508   Change is   -0.517967963737725
 Root      4 :     9.285079582929853   Change is   -0.807546898508563
 Root      5 :     9.615821712291165   Change is   -0.258513747304754
 Root      6 :    10.333108458740900   Change is   -0.195307754320537
 Root      7 :    10.922962318142590   Change is   -0.818884947137048
 Root      8 :    11.944750719836300   Change is   -0.267475167921016
 Root      9 :    12.620663510280870   Change is   -0.821885987118977
 Root     10 :    12.947424218109660   Change is   -1.002038548941471
 Root     11 :    13.643140259924260   Change is   -0.433349507841796
 Root     12 :    13.828828435402840   Change is   -1.448317171236349
 Root     13 :    13.930699713415360   Change is   -0.172823191212614
 Root     14 :    14.020416536390510   Change is   -0.132930591548248
 Root     15 :    14.194270482323050   Change is   -0.340410450118560
 Root     16 :    14.347283686760780   Change is   -0.102466465643860
 Root     17 :    14.396430573673210   Change is   -0.433526614180626
 Root     18 :    14.763204262433320   Change is   -0.391801676804668
 Root     19 :    15.175927234192370   Change is   -0.998267984150220
 Root     20 :    15.488625420695370   Change is   -0.264821070204372
 Root     21 :    15.560152287835540   Change is   -0.490147388343053
 Root     22 :    15.609196853652460   Change is   -0.485624610702173
 Root     23 :    17.044493799256260   Change is   -1.167309107235158
 Root     24 :    18.520568605968150
 Iteration     3 Dimension    54 NMult    48 NNew      6
 Estimated number of processors is:   20
 CISAX will form     1 AO SS matrices at one time.
 NMat=     1 NSing=     1 JSym2X= 2.
 CoulSu:  requested number of processors reduced to:  20 ShMem   1 Linda.
 NMat=     1 NSing=     1 JSym2X= 2.
 CoulSu:  requested number of processors reduced to:  20 ShMem   1 Linda.
 NMat=     1 NSing=     1 JSym2X= 2.
 CoulSu:  requested number of processors reduced to:  20 ShMem   1 Linda.
 NMat=     1 NSing=     0 JSym2X= 2.
 CoulSu:  requested number of processors reduced to:  20 ShMem   1 Linda.
 NMat=     1 NSing=     0 JSym2X= 2.
 CoulSu:  requested number of processors reduced to:  20 ShMem   1 Linda.
 NMat=     1 NSing=     0 JSym2X= 2.
 CoulSu:  requested number of processors reduced to:  20 ShMem   1 Linda.
 Root      1 not converged, maximum delta is    0.003121527378098
 Excitation Energies [eV] at current iteration:
 Root      1 :     7.367043929959140   Change is   -0.002976136332469
 Root      2 :     8.166251965861186   Change is   -0.002418770817796
 Root      3 :     9.202399033975025   Change is   -0.006399376809482
 Root      4 :     9.245941513042027   Change is   -0.039138069887827
 Root      5 :     9.611996899802575   Change is   -0.003824812488591
 Root      6 :    10.321419961501480   Change is   -0.011688497239421
 Iteration     4 Dimension    60 NMult    54 NNew      6
 Estimated number of processors is:   20
 CISAX will form     1 AO SS matrices at one time.
 NMat=     1 NSing=     1 JSym2X= 2.
 CoulSu:  requested number of processors reduced to:  20 ShMem   1 Linda.
 NMat=     1 NSing=     1 JSym2X= 2.
 CoulSu:  requested number of processors reduced to:  20 ShMem   1 Linda.
 NMat=     1 NSing=     1 JSym2X= 2.
 CoulSu:  requested number of processors reduced to:  20 ShMem   1 Linda.
 NMat=     1 NSing=     0 JSym2X= 2.
 CoulSu:  requested number of processors reduced to:  20 ShMem   1 Linda.
 NMat=     1 NSing=     0 JSym2X= 2.
 CoulSu:  requested number of processors reduced to:  20 ShMem   1 Linda.
 NMat=     1 NSing=     0 JSym2X= 2.
 CoulSu:  requested number of processors reduced to:  20 ShMem   1 Linda.
 Root      1 has converged.
 Excitation Energies [eV] at current iteration:
 Root      1 :     7.367010759539569   Change is   -0.000033170419571
 Root      2 :     8.166233743345899   Change is   -0.000018222515286
 Root      3 :     9.202287230804489   Change is   -0.000111803170536
 Root      4 :     9.245017938633593   Change is   -0.000923574408432
 Root      5 :     9.611954767306287   Change is   -0.000042132496288
 Root      6 :    10.320826135009440   Change is   -0.000593826492041
 Convergence achieved on expansion vectors.
 ***********************************************************************
 Stability analysis using <AA,BB:AA,BB> singles matrix:
 ***********************************************************************
 1PDM for each excited state written to RWF  633
 Ground to excited state transition densities written to RWF  633

 Eigenvectors of the stability matrix:
 
 Eigenvector   1:      Triplet-B1   Eigenvalue= 0.2707327  <S**2>=2.000
       5 ->  6         0.67878
       5 -> 11        -0.17248
 The wavefunction is stable under the perturbations considered.
 Leave Link  914 at Sun Apr 18 05:08:23 2021, MaxMem=   104857600 cpu:            2798.0 elap:              78.2
 (Enter /s/ls4/users/knvvv/bin/g16sse/l508.exe)
 The wavefunction is already stable.
 Leave Link  508 at Sun Apr 18 05:08:23 2021, MaxMem=   104857600 cpu:               2.2 elap:               0.1
 (Enter /s/ls4/users/knvvv/bin/g16sse/l601.exe)
 Copying SCF densities to generalized density rwf, IOpCl= 0 IROHF=0.

 **********************************************************************

            Population analysis using the SCF density.

 **********************************************************************

 Orbital symmetries:
       Occupied  (A1) (A1) (B2) (A1) (B1)
       Virtual   (A1) (B2) (A1) (B2) (B1) (A1) (B2) (A1) (A2) (B1)
                 (A1) (B2) (A1) (B2) (B2) (A1) (B1) (A1) (A2) (A1)
                 (B1) (B2) (A1) (B1) (A1) (B2) (A2) (B2) (B1) (A1)
                 (B2) (A2) (A1) (B2) (A2) (B1) (A1) (B2) (B2) (A1)
                 (A1) (B1) (A2) (A1) (B1) (B2) (A1) (B1) (A1) (B2)
                 (A2) (A1) (B2) (B1) (B2) (A1) (B1) (A1) (A2) (B2)
                 (A2) (A1) (B2) (B1) (B2) (A2) (A1) (B1) (B2) (A1)
                 (B2) (A1) (B1) (B1) (A1) (A2) (B2) (A2) (A1) (B2)
                 (A1) (A2) (B2) (B1) (B2) (A1) (A1) (B1) (A1) (A2)
                 (B2) (A1) (A2) (B2) (B1) (B1) (A1) (B1) (A1) (B2)
                 (A2) (A1) (B2) (B2) (A1) (B1) (A2) (A1) (B2) (A1)
                 (A1) (A1)
 The electronic state is 1-A1.
 Alpha  occ. eigenvalues --  -19.62697  -1.13431  -0.60977  -0.47443  -0.40189
 Alpha virt. eigenvalues --    0.03688   0.08459   0.26908   0.29645   0.30071
 Alpha virt. eigenvalues --    0.33592   0.41633   0.48409   0.54485   0.60433
 Alpha virt. eigenvalues --    0.62997   0.79132   0.91384   0.93707   1.01569
 Alpha virt. eigenvalues --    1.05553   1.29480   1.29874   1.31658   1.38351
 Alpha virt. eigenvalues --    1.40091   1.44809   1.79699   1.87780   1.97695
 Alpha virt. eigenvalues --    1.99340   2.07969   2.24987   2.27023   2.29810
 Alpha virt. eigenvalues --    2.30794   2.37615   2.49485   2.54498   2.62223
 Alpha virt. eigenvalues --    2.64721   2.83492   2.92643   3.08225   3.10788
 Alpha virt. eigenvalues --    3.20048   3.66888   3.79656   3.82006   3.84390
 Alpha virt. eigenvalues --    4.00650   4.06309   4.18335   4.19756   4.37741
 Alpha virt. eigenvalues --    4.55874   4.71208   4.75152   5.22919   5.28654
 Alpha virt. eigenvalues --    5.29461   5.61612   5.79667   5.85810   5.93353
 Alpha virt. eigenvalues --    6.28438   6.41579   6.63158   6.94457   6.95441
 Alpha virt. eigenvalues --    7.00439   7.00882   7.10717   7.16647   7.19526
 Alpha virt. eigenvalues --    7.24233   7.31296   7.51256   7.63447   7.68142
 Alpha virt. eigenvalues --    7.70652   7.71147   7.80753   7.91966   8.12796
 Alpha virt. eigenvalues --    8.30246   8.40427   8.54318   8.59400   8.84795
 Alpha virt. eigenvalues --    8.85465   9.65853   9.66970  10.06357  10.13791
 Alpha virt. eigenvalues --   10.52288  10.53033  10.73959  10.83362  10.94349
 Alpha virt. eigenvalues --   11.13850  11.25436  11.54658  11.56761  11.65635
 Alpha virt. eigenvalues --   11.69052  12.02258  12.60114  13.26210  13.35385
 Alpha virt. eigenvalues --   13.44064  13.86171  14.21967  16.31140  16.35489
 Alpha virt. eigenvalues --   48.23596 251.29887
          Condensed to atoms (all electrons):
               1          2          3
     1  O    7.944379   0.326629   0.326629
     2  H    0.326629   0.384970  -0.010418
     3  H    0.326629  -0.010418   0.384970
 Mulliken charges:
               1
     1  O   -0.597638
     2  H    0.298819
     3  H    0.298819
 Sum of Mulliken charges =  -0.00000
 Mulliken charges with hydrogens summed into heavy atoms:
               1
     1  O   -0.000000
 Electronic spatial extent (au):  <R**2>=             19.7192
 Charge=             -0.0000 electrons
 Dipole moment (field-independent basis, Debye):
    X=             -0.0000    Y=             -0.0000    Z=             -1.9380  Tot=              1.9380
 Quadrupole moment (field-independent basis, Debye-Ang):
   XX=             -7.6111   YY=             -4.3387   ZZ=             -6.3594
   XY=              0.0000   XZ=              0.0000   YZ=              0.0000
 Traceless Quadrupole moment (field-independent basis, Debye-Ang):
   XX=             -1.5081   YY=              1.7644   ZZ=             -0.2564
   XY=              0.0000   XZ=              0.0000   YZ=              0.0000
 Octapole moment (field-independent basis, Debye-Ang**2):
  XXX=              0.0000  YYY=              0.0000  ZZZ=             -1.1441  XYY=             -0.0000
  XXY=              0.0000  XXZ=             -0.2721  XZZ=              0.0000  YZZ=             -0.0000
  YYZ=             -1.3706  XYZ=             -0.0000
 Hexadecapole moment (field-independent basis, Debye-Ang**3):
 XXXX=             -6.7336 YYYY=             -6.2260 ZZZZ=             -7.3896 XXXY=             -0.0000
 XXXZ=             -0.0000 YYYX=             -0.0000 YYYZ=             -0.0000 ZZZX=             -0.0000
 ZZZY=             -0.0000 XXYY=             -2.4938 XXZZ=             -2.4067 YYZZ=             -1.9376
 XXYZ=             -0.0000 YYXZ=              0.0000 ZZXY=              0.0000
 N-N= 9.158516853166D+00 E-N=-1.991766069653D+02  KE= 7.618734114700D+01
 PrsmSu:  requested number of processors reduced to:  21 ShMem   1 Linda.
 No NMR shielding tensors so no spin-rotation constants.
 Leave Link  601 at Sun Apr 18 05:08:25 2021, MaxMem=   104857600 cpu:              93.5 elap:               2.1
 (Enter /s/ls4/users/knvvv/bin/g16sse/l9999.exe)

 Test job not archived.
 1\1\GINC-N178\Stability\RM062X\def2QZVP\H2O1\KNVVV\18-Apr-2021\0\\#P M
 062X/Def2QZVP Integral=UltraFineGrid SCF=NoSymm Stable=(RExt, Opt) IOp
 (1/33=1)\\Database calculations.\\0,1\O,0,0.,0.,-0.3893611378\H,0,0.76
 29844419,0.,0.1946805689\H,0,-0.7629844419,0.,0.1946805689\\Version=ES
 64L-G16RevA.03\State=1-A1\HF=-76.4361917\RMSD=5.246e-09\Dipole=0.,0.,0
 .7624833\Quadrupole=1.3118002,-1.1212032,-0.1905969,0.,0.,0.\PG=C02V [
 C2(O1),SGV(H2)]\\@


 Just remember, when you're over the hill, you begin to pick up speed.
 -- Charles Schulz
 Job cpu time:       0 days  1 hours 28 minutes  7.8 seconds.
 Elapsed time:       0 days  0 hours  2 minutes 12.2 seconds.
 File lengths (MBytes):  RWF=     52 Int=      0 D2E=      0 Chk=      3 Scr=      1
 Normal termination of Gaussian 16 at Sun Apr 18 05:08:25 2021.
