 Entering Gaussian System, Link 0=/s/ls4/users/knvvv/bin/g16sse/g16
 Input=data/database/M062X--def2-QZVPPD--21_C2H6_Platonic24.gjf
 Output=data/database/M062X--def2-QZVPPD--21_C2H6_Platonic24.log
 Initial command:
 /s/ls4/users/knvvv/bin/g16sse/l1.exe "/s/ls4/users/knvvv/bin/scratch/Gau-20303.inp" -scrdir="/s/ls4/users/knvvv/bin/scratch/"
 Entering Link 1 = /s/ls4/users/knvvv/bin/g16sse/l1.exe PID=     20304.
  
 Copyright (c) 1988,1990,1992,1993,1995,1998,2003,2009,2016,
            Gaussian, Inc.  All Rights Reserved.
  
 This is part of the Gaussian(R) 16 program.  It is based on
 the Gaussian(R) 09 system (copyright 2009, Gaussian, Inc.),
 the Gaussian(R) 03 system (copyright 2003, Gaussian, Inc.),
 the Gaussian(R) 98 system (copyright 1998, Gaussian, Inc.),
 the Gaussian(R) 94 system (copyright 1995, Gaussian, Inc.),
 the Gaussian 92(TM) system (copyright 1992, Gaussian, Inc.),
 the Gaussian 90(TM) system (copyright 1990, Gaussian, Inc.),
 the Gaussian 88(TM) system (copyright 1988, Gaussian, Inc.),
 the Gaussian 86(TM) system (copyright 1986, Carnegie Mellon
 University), and the Gaussian 82(TM) system (copyright 1983,
 Carnegie Mellon University). Gaussian is a federally registered
 trademark of Gaussian, Inc.
  
 This software contains proprietary and confidential information,
 including trade secrets, belonging to Gaussian, Inc.
  
 This software is provided under written license and may be
 used, copied, transmitted, or stored only in accord with that
 written license.
  
 The following legend is applicable only to US Government
 contracts under FAR:
  
                    RESTRICTED RIGHTS LEGEND
  
 Use, reproduction and disclosure by the US Government is
 subject to restrictions as set forth in subparagraphs (a)
 and (c) of the Commercial Computer Software - Restricted
 Rights clause in FAR 52.227-19.
  
 Gaussian, Inc.
 340 Quinnipiac St., Bldg. 40, Wallingford CT 06492
  
  
 ---------------------------------------------------------------
 Warning -- This program may not be used in any manner that
 competes with the business of Gaussian, Inc. or will provide
 assistance to any competitor of Gaussian, Inc.  The licensee
 of this program is prohibited from giving any competitor of
 Gaussian, Inc. access to this program.  By using this program,
 the user acknowledges that Gaussian, Inc. is engaged in the
 business of creating and licensing software in the field of
 computational chemistry and represents and warrants to the
 licensee that it is not a competitor of Gaussian, Inc. and that
 it will not use this program in any manner prohibited above.
 ---------------------------------------------------------------
  

 Cite this work as:
 Gaussian 16, Revision A.03,
 M. J. Frisch, G. W. Trucks, H. B. Schlegel, G. E. Scuseria, 
 M. A. Robb, J. R. Cheeseman, G. Scalmani, V. Barone, 
 G. A. Petersson, H. Nakatsuji, X. Li, M. Caricato, A. V. Marenich, 
 J. Bloino, B. G. Janesko, R. Gomperts, B. Mennucci, H. P. Hratchian, 
 J. V. Ortiz, A. F. Izmaylov, J. L. Sonnenberg, D. Williams-Young, 
 F. Ding, F. Lipparini, F. Egidi, J. Goings, B. Peng, A. Petrone, 
 T. Henderson, D. Ranasinghe, V. G. Zakrzewski, J. Gao, N. Rega, 
 G. Zheng, W. Liang, M. Hada, M. Ehara, K. Toyota, R. Fukuda, 
 J. Hasegawa, M. Ishida, T. Nakajima, Y. Honda, O. Kitao, H. Nakai, 
 T. Vreven, K. Throssell, J. A. Montgomery, Jr., J. E. Peralta, 
 F. Ogliaro, M. J. Bearpark, J. J. Heyd, E. N. Brothers, K. N. Kudin, 
 V. N. Staroverov, T. A. Keith, R. Kobayashi, J. Normand, 
 K. Raghavachari, A. P. Rendell, J. C. Burant, S. S. Iyengar, 
 J. Tomasi, M. Cossi, J. M. Millam, M. Klene, C. Adamo, R. Cammi, 
 J. W. Ochterski, R. L. Martin, K. Morokuma, O. Farkas, 
 J. B. Foresman, and D. J. Fox, Gaussian, Inc., Wallingford CT, 2016.
 
 ******************************************
 Gaussian 16:  ES64L-G16RevA.03 25-Dec-2016
                17-Apr-2021 
 ******************************************
 %RWF=temp5_79552,70GB
 %nprocshared=48
 Will use up to   48 processors via shared memory.
 Default route: MaxDisk=80GB
 ----------------------------------------------------------------------
 #P M062X/GEN Integral=UltraFineGrid SCF=NoSymm Stable=(RExt, Opt) IOp(
 1/33=1)
 ----------------------------------------------------------------------
 1/33=1,38=1,172=1/1;
 2/12=2,17=6,18=5,40=1/2;
 3/5=7,11=2,25=1,30=1,74=-55,75=-5/1,2,3;
 4/9=2/1;
 5/5=2,38=5/2;
 6/7=2,8=2,9=2,10=2,28=1/1;
 8/6=1,10=90,11=11/1;
 9/8=-3,42=1,46=1/14;
 5/5=2,8=3,17=40,38=5/8(-2);
 6/7=2,8=2,9=2,10=2,28=1/1;
 99/5=1,9=1/99;
 Leave Link    1 at Sat Apr 17 20:16:14 2021, MaxMem=           0 cpu:              11.4 elap:               0.3
 (Enter /s/ls4/users/knvvv/bin/g16sse/l101.exe)
 ONIOM data not found on unit 2.
 ----------------------
 Database calculations.
 ----------------------
 TstMul:  ICh=     0
 TstMul:  Mul=     1
 TstMul:  ICh=     0
 TstMul:  Mul=     1
 Symbolic Z-matrix:
 Charge =  0 Multiplicity = 1
 C                     0.        0.        0.76358 
 C                     0.        0.       -0.76358 
 H                     0.        1.01631   1.16021 
 H                    -0.88015  -0.50815   1.16021 
 H                     0.88015  -0.50815   1.16021 
 H                     0.       -1.01631  -1.16021 
 H                    -0.88015   0.50815  -1.16021 
 H                     0.88015   0.50815  -1.16021 
 
 RdStrC is calling ZToCFu for IStruc=1 NZ=     8.
 PrtBox:  NBox=     1 Levels=  1 BoxLen=    8.00 SMaxX=        4.38
          Shift=            1.663239            1.920544            2.192470
 Box      1 Number                   0 centers from      1 to      8:
 After GenITR:
 ITRead=  0  0  0  0  0  0  0  0
 MicOpt= -1 -1 -1 -1 -1 -1 -1 -1
 ITRead=  0  0  0  0  0  0  0  0
 MicOpt= -1 -1 -1 -1 -1 -1 -1 -1
 NAtoms=      8 NQM=        8 NQMF=       0 NMMI=      0 NMMIF=      0
                NMic=       0 NMicF=      0.
                    Isotopes and Nuclear Properties:
 (Nuclear quadrupole moments (NQMom) in fm**2, nuclear magnetic moments (NMagM)
  in nuclear magnetons)

  Atom         1           2           3           4           5           6           7           8
 IAtWgt=          12          12           1           1           1           1           1           1
 AtmWgt=  12.0000000  12.0000000   1.0078250   1.0078250   1.0078250   1.0078250   1.0078250   1.0078250
 NucSpn=           0           0           1           1           1           1           1           1
 AtZEff=  -0.0000000  -0.0000000  -0.0000000  -0.0000000  -0.0000000  -0.0000000  -0.0000000  -0.0000000
 NQMom=    0.0000000   0.0000000   0.0000000   0.0000000   0.0000000   0.0000000   0.0000000   0.0000000
 NMagM=    0.0000000   0.0000000   2.7928460   2.7928460   2.7928460   2.7928460   2.7928460   2.7928460
 AtZNuc=   6.0000000   6.0000000   1.0000000   1.0000000   1.0000000   1.0000000   1.0000000   1.0000000
 No MM parameters found.
 Leave Link  101 at Sat Apr 17 20:16:15 2021, MaxMem=   104857600 cpu:               8.6 elap:               0.2
 (Enter /s/ls4/users/knvvv/bin/g16sse/l202.exe)
                          Input orientation:                          
 ---------------------------------------------------------------------
 Center     Atomic      Atomic             Coordinates (Angstroms)
 Number     Number       Type             X           Y           Z
 ---------------------------------------------------------------------
      1          6           0        0.000000    0.000000    0.763580
      2          6           0        0.000000    0.000000   -0.763580
      3          1           0        0.000000    1.016308    1.160205
      4          1           0       -0.880148   -0.508154    1.160205
      5          1           0        0.880148   -0.508154    1.160205
      6          1           0        0.000000   -1.016308   -1.160205
      7          1           0       -0.880148    0.508154   -1.160205
      8          1           0        0.880148    0.508154   -1.160205
 ---------------------------------------------------------------------
                    Distance matrix (angstroms):
                    1          2          3          4          5
     1  C    0.000000
     2  C    1.527160   0.000000
     3  H    1.090960   2.175737   0.000000
     4  H    1.090959   2.175737   1.760297   0.000000
     5  H    1.090959   2.175737   1.760297   1.760296   0.000000
     6  H    2.175737   1.090960   3.084774   2.533216   2.533216
     7  H    2.175737   1.090959   2.533216   2.533216   3.084773
     8  H    2.175737   1.090959   2.533216   3.084773   2.533216
                    6          7          8
     6  H    0.000000
     7  H    1.760297   0.000000
     8  H    1.760297   1.760296   0.000000
 Stoichiometry    C2H6
 Framework group  D3D[C3(C.C),3SGD(H2)]
 Deg. of freedom     3
 Full point group                 D3D     NOp  12
 Largest Abelian subgroup         C2H     NOp   4
 Largest concise Abelian subgroup C2H     NOp   4
                         Standard orientation:                         
 ---------------------------------------------------------------------
 Center     Atomic      Atomic             Coordinates (Angstroms)
 Number     Number       Type             X           Y           Z
 ---------------------------------------------------------------------
      1          6           0        0.000000    0.000000    0.763580
      2          6           0       -0.000000   -0.000000   -0.763580
      3          1           0       -0.000000    1.016308    1.160205
      4          1           0       -0.880149   -0.508154    1.160205
      5          1           0        0.880149   -0.508154    1.160205
      6          1           0       -0.000000   -1.016308   -1.160205
      7          1           0       -0.880149    0.508154   -1.160205
      8          1           0        0.880149    0.508154   -1.160205
 ---------------------------------------------------------------------
 Rotational constants (GHZ):          80.9152011          20.0103732          20.0103732
 Leave Link  202 at Sat Apr 17 20:16:15 2021, MaxMem=   104857600 cpu:              19.0 elap:               0.4
 (Enter /s/ls4/users/knvvv/bin/g16sse/l301.exe)
 General basis read from cards:  (5D, 7F)
 Centers:       3      4      5      6      7      8
 S 4 1.00
     Exponent=  1.9069169000D+02 Coefficients=  7.0815167000D-04
     Exponent=  2.8605532000D+01 Coefficients=  5.4678827000D-03
     Exponent=  6.5095943000D+00 Coefficients=  2.7966605000D-02
     Exponent=  1.8412455000D+00 Coefficients=  1.0764538000D-01
 S 1 1.00
     Exponent=  5.9853725000D-01 Coefficients=  1.0000000000D+00
 S 1 1.00
     Exponent=  2.1397624000D-01 Coefficients=  1.0000000000D+00
 S 1 1.00
     Exponent=  8.0316286000D-02 Coefficients=  1.0000000000D+00
 P 1 1.00
     Exponent=  2.2920000000D+00 Coefficients=  1.0000000000D+00
 P 1 1.00
     Exponent=  8.3800000000D-01 Coefficients=  1.0000000000D+00
 P 1 1.00
     Exponent=  2.9200000000D-01 Coefficients=  1.0000000000D+00
 P 1 1.00
     Exponent=  8.4063199228D-02 Coefficients=  1.0000000000D+00
 D 1 1.00
     Exponent=  2.0620000000D+00 Coefficients=  1.0000000000D+00
 D 1 1.00
     Exponent=  6.6200000000D-01 Coefficients=  1.0000000000D+00
 F 1 1.00
     Exponent=  1.3970000000D+00 Coefficients=  1.0000000000D+00
 ****
 Centers:       1      2
 S 8 1.00
     Exponent=  6.7025071029D+04 Coefficients=  3.8736308501D-05
     Exponent=  1.0039986538D+04 Coefficients=  3.0107917575D-04
     Exponent=  2.2849316911D+03 Coefficients=  1.5787918095D-03
     Exponent=  6.4714122130D+02 Coefficients=  6.6087087195D-03
     Exponent=  2.1109472335D+02 Coefficients=  2.3367123250D-02
     Exponent=  7.6177643862D+01 Coefficients=  7.0420716898D-02
     Exponent=  2.9633839163D+01 Coefficients=  1.7360344953D-01
     Exponent=  1.2187785081D+01 Coefficients=  3.2292305648D-01
 S 2 1.00
     Exponent=  5.3026006299D+01 Coefficients=  7.4897404492D-02
     Exponent=  1.5258502776D+01 Coefficients=  7.6136220983D-01
 S 1 1.00
     Exponent=  5.2403957464D+00 Coefficients=  1.0000000000D+00
 S 1 1.00
     Exponent=  2.2905022379D+00 Coefficients=  1.0000000000D+00
 S 1 1.00
     Exponent=  6.9673283006D-01 Coefficients=  1.0000000000D+00
 S 1 1.00
     Exponent=  2.7599337363D-01 Coefficients=  1.0000000000D+00
 S 1 1.00
     Exponent=  1.0739884389D-01 Coefficients=  1.0000000000D+00
 S 1 1.00
     Exponent=  4.4981404899D-02 Coefficients=  1.0000000000D+00
 P 5 1.00
     Exponent=  1.0512555082D+02 Coefficients=  8.4647553844D-04
     Exponent=  2.4884461066D+01 Coefficients=  6.6274038534D-03
     Exponent=  7.8637230826D+00 Coefficients=  3.0120390419D-02
     Exponent=  2.8407001835D+00 Coefficients=  9.9951435476D-02
     Exponent=  1.1227137335D+00 Coefficients=  2.3826299282D-01
 P 1 1.00
     Exponent=  4.6050725555D-01 Coefficients=  1.0000000000D+00
 P 1 1.00
     Exponent=  1.8937530913D-01 Coefficients=  1.0000000000D+00
 P 1 1.00
     Exponent=  7.5983791611D-02 Coefficients=  1.0000000000D+00
 D 1 1.00
     Exponent=  1.8480000000D+00 Coefficients=  1.0000000000D+00
 D 1 1.00
     Exponent=  6.4900000000D-01 Coefficients=  1.0000000000D+00
 D 1 1.00
     Exponent=  2.2800000000D-01 Coefficients=  1.0000000000D+00
 D 1 1.00
     Exponent=  7.6889830417D-02 Coefficients=  1.0000000000D+00
 F 1 1.00
     Exponent=  1.4190000000D+00 Coefficients=  1.0000000000D+00
 F 1 1.00
     Exponent=  4.8500000000D-01 Coefficients=  1.0000000000D+00
 G 1 1.00
     Exponent=  1.0110000000D+00 Coefficients=  1.0000000000D+00
 ****
 Ernie: Thresh=  0.10000D-02 Tol=  0.10000D-05 Strict=F.
 There are   117 symmetry adapted cartesian basis functions of AG  symmetry.
 There are    76 symmetry adapted cartesian basis functions of BG  symmetry.
 There are    76 symmetry adapted cartesian basis functions of AU  symmetry.
 There are   117 symmetry adapted cartesian basis functions of BU  symmetry.
 There are    96 symmetry adapted basis functions of AG  symmetry.
 There are    66 symmetry adapted basis functions of BG  symmetry.
 There are    66 symmetry adapted basis functions of AU  symmetry.
 There are    96 symmetry adapted basis functions of BU  symmetry.
   324 basis functions,   444 primitive gaussians,   386 cartesian basis functions
     9 alpha electrons        9 beta electrons
       nuclear repulsion energy        42.2639642630 Hartrees.
 IExCor= 4336 DFT=T Ex+Corr=M062X ExCW=0 ScaHFX=  0.540000
 ScaDFX=  1.000000  1.000000  1.000000  1.000000 ScalE2=  1.000000  1.000000
 IRadAn=      5 IRanWt=     -1 IRanGd=            0 ICorTp=0 IEmpDi=  4
 NAtoms=    8 NActive=    8 NUniq=    2 SFac= 4.00D+00 NAtFMM=   60 NAOKFM=F Big=F
 Integral buffers will be    131072 words long.
 Raffenetti 2 integral format.
 Two-electron integral symmetry is turned on.
 Leave Link  301 at Sat Apr 17 20:16:15 2021, MaxMem=   104857600 cpu:               7.0 elap:               0.2
 (Enter /s/ls4/users/knvvv/bin/g16sse/l302.exe)
 NPDir=0 NMtPBC=     1 NCelOv=     1 NCel=       1 NClECP=     1 NCelD=      1
         NCelK=      1 NCelE2=     1 NClLst=     1 CellRange=     0.0.
 One-electron integrals computed using PRISM.
 One-electron integral symmetry used in STVInt
 PrsmSu:  requested number of processors reduced to:   4 ShMem   1 Linda.
 PrsmSu:  requested number of processors reduced to:  21 ShMem   1 Linda.
 NBasis=   324 RedAO= T EigKep=  1.15D-06  NBF=    96    66    66    96
 NBsUse=   322 1.00D-06 EigRej=  5.67D-07 NBFU=    95    65    66    96
 Precomputing XC quadrature grid using
 IXCGrd= 4 IRadAn=           5 IRanWt=          -1 IRanGd=           0 AccXCQ= 0.00D+00.
 Generated NRdTot=       0 NPtTot=           0 NUsed=           0 NTot=          32
 NSgBfM=   386   386   386   386   386 MxSgAt=     8 MxSgA2=     8.
 Leave Link  302 at Sat Apr 17 20:16:16 2021, MaxMem=   104857600 cpu:              26.1 elap:               0.6
 (Enter /s/ls4/users/knvvv/bin/g16sse/l303.exe)
 DipDrv:  MaxL=1.
 Leave Link  303 at Sat Apr 17 20:16:17 2021, MaxMem=   104857600 cpu:              56.6 elap:               1.2
 (Enter /s/ls4/users/knvvv/bin/g16sse/l401.exe)
 SCF N**3 symmetry information disabled.
 ExpMin= 4.50D-02 ExpMax= 6.70D+04 ExpMxC= 6.47D+02 IAcc=3 IRadAn=         5 AccDes= 0.00D+00
 Harris functional with IExCor= 1009 and IRadAn=       5 diagonalized for initial guess.
 HarFok:  IExCor= 1009 AccDes= 0.00D+00 IRadAn=         5 IDoV= 1 UseB2=F ITyADJ=14
 ICtDFT=  3500011 ScaDFX=  1.000000  1.000000  1.000000  1.000000
 FoFCou: FMM=F IPFlag=           0 FMFlag=      100000 FMFlg1=           0
         NFxFlg=           0 DoJE=T BraDBF=F KetDBF=T FulRan=T
         wScrn=  0.000000 ICntrl=       500 IOpCl=  0 I1Cent=   200000004 NGrid=           0
         NMat0=    1 NMatS0=      1 NMatT0=    0 NMatD0=    1 NMtDS0=    0 NMtDT0=    0
 Petite list used in FoFCou.
 CoulSu:  requested number of processors reduced to:  20 ShMem   1 Linda.
 CoulSu:  requested number of processors reduced to:  20 ShMem   1 Linda.
 CoulSu:  requested number of processors reduced to:  21 ShMem   1 Linda.
 CoulSu:  requested number of processors reduced to:  21 ShMem   1 Linda.
 Harris En= -79.8489953144408    
 JPrj=0 DoOrth=F DoCkMO=F.
 Initial guess orbital symmetries:
       Occupied  (A1G) (A2U) (A1G) (A2U) (EU) (EU) (A1G) (EG) (EG)
       Virtual   (A1G) (A2U) (EU) (EU) (EG) (EG) (A1G) (A2U) (EG)
                 (EG) (EU) (EU) (A2U) (A1G) (EU) (EU) (A2U) (EU)
                 (EU) (A1U) (A2U) (EG) (EG) (A1G) (EG) (EG) (A2G)
                 (A1G) (EG) (EG) (EU) (EU) (A1G) (EG) (EG) (A2U)
                 (A2U) (EU) (EU) (EU) (EU) (A1G) (EG) (EG) (EU)
                 (EU) (A2U) (EU) (EU) (EG) (EG) (A2U) (A1G) (A1U)
                 (EG) (EG) (A1G) (EU) (EU) (EG) (EG) (A2U) (A2G)
                 (EU) (EU) (A1G) (A2U) (A2U) (EG) (EG) (EU) (EU)
                 (A1G) (EU) (EU) (EG) (EG) (A1G) (A2U) (EG) (EG)
                 (A1G) (EU) (EU) (EG) (EG) (EU) (EU) (A2U) (A1U)
                 (A1G) (EU) (EU) (EG) (EG) (EG) (EG) (A2G) (EU)
                 (EU) (A2U) (EU) (EU) (EG) (EG) (A2U) (A1G) (A1U)
                 (EU) (EU) (A2U) (EG) (EG) (A2G) (A1G) (EU) (EU)
                 (A2U) (EG) (EG) (EG) (EG) (EU) (EU) (A2U) (A1G)
                 (EG) (EG) (A1G) (EU) (EU) (A1U) (EG) (EG) (A2G)
                 (A1G) (EU) (EU) (A2U) (A1U) (EG) (EG) (A1G) (EU)
                 (EU) (EG) (EG) (A1G) (EU) (EU) (A2U) (A1G) (A2U)
                 (EG) (EG) (EU) (EU) (A1G) (A2G) (EG) (EG) (EU)
                 (EU) (A2U) (EG) (EG) (EU) (EU) (A2U) (EG) (EG)
                 (EU) (EU) (A1U) (EG) (EG) (A2G) (A1G) (EU) (EU)
                 (A2U) (EU) (EU) (EU) (EU) (EG) (EG) (EG) (EG)
                 (A2U) (A2G) (A1U) (A1G) (A1U) (EG) (EG) (A2U)
                 (EU) (EU) (A1G) (EG) (EG) (A2G) (A2U) (EU) (EU)
                 (EG) (EG) (A1G) (EU) (EU) (A1G) (EU) (EU) (EG)
                 (EG) (A1U) (EU) (EU) (A1G) (A2U) (A2U) (EG) (EG)
                 (A1G) (A2G) (EG) (EG) (EU) (EU) (A1G) (EU) (EU)
                 (A1U) (A2U) (EG) (EG) (EG) (EG) (A1G) (A2U) (EG)
                 (EG) (EU) (EU) (EU) (EU) (A2G) (EG) (EG) (A2U)
                 (A1G) (EU) (EU) (EU) (EU) (EG) (EG) (A1U) (A2U)
                 (EU) (EU) (A2G) (A1G) (EG) (EG) (A2U) (EG) (EG)
                 (EU) (EU) (A1G) (A2U) (EG) (EG) (A1U) (EG) (EG)
                 (EU) (EU) (A1G) (EU) (EU) (A2G) (A2U) (EG) (EG)
                 (EU) (EU) (A2U) (A1G) (EG) (EG) (EU) (EU) (A2U)
                 (A1G) (EG) (EG) (A1U) (EU) (EU) (A2G) (EG) (EG)
                 (EU) (EU) (A2U) (A1G) (A1G) (A2U) (A1G) (A2U)
 The electronic state of the initial guess is 1-A1G.
 Leave Link  401 at Sat Apr 17 20:16:18 2021, MaxMem=   104857600 cpu:              36.4 elap:               0.9
 (Enter /s/ls4/users/knvvv/bin/g16sse/l502.exe)
 Integral symmetry usage will be decided dynamically.
 Closed shell SCF:
 Using DIIS extrapolation, IDIIS=  1040.
 NGot=   104857600 LenX=   104534642 LenY=   104385205
 Requested convergence on RMS density matrix=1.00D-08 within 128 cycles.
 Requested convergence on MAX density matrix=1.00D-06.
 Requested convergence on             energy=1.00D-06.
 No special actions if energy rises.
 Fock matrices will be formed incrementally for  20 cycles.

 Cycle   1  Pass 1  IDiag  1:
 FoFJK:  IHMeth= 1 ICntrl=       0 DoSepK=F KAlg= 0 I1Cent=           0 FoldK=F
 IRaf= 990000000 NMat=       1 IRICut=       1 DoRegI=T DoRafI=F ISym2E= 1 IDoP0=0 IntGTp=1.
 FoFCou: FMM=F IPFlag=           0 FMFlag=      100000 FMFlg1=           0
         NFxFlg=           0 DoJE=F BraDBF=F KetDBF=F FulRan=T
         wScrn=  0.000000 ICntrl=         0 IOpCl=  0 I1Cent=           0 NGrid=           0
         NMat0=    1 NMatS0=      1 NMatT0=    0 NMatD0=    1 NMtDS0=    0 NMtDT0=    0
 Petite list used in FoFCou.
 CoulSu:  requested number of processors reduced to:  21 ShMem   1 Linda.
 E= -79.6759295013839    
 DIIS: error= 3.76D-02 at cycle   1 NSaved=   1.
 NSaved= 1 IEnMin= 1 EnMin= -79.6759295013839     IErMin= 1 ErrMin= 3.76D-02
 ErrMax= 3.76D-02  0.00D+00 EMaxC= 1.00D-01 BMatC= 1.74D-01 BMatP= 1.74D-01
 IDIUse=3 WtCom= 6.24D-01 WtEn= 3.76D-01
 Coeff-Com:  0.100D+01
 Coeff-En:   0.100D+01
 Coeff:      0.100D+01
 Gap=     0.347 Goal=   None    Shift=    0.000
 GapD=    0.347 DampG=1.000 DampE=0.500 DampFc=0.5000 IDamp=-1.
 Damping current iteration by 5.00D-01
 RMSDP=1.66D-03 MaxDP=5.67D-02              OVMax= 1.65D-01

 Cycle   2  Pass 1  IDiag  1:
 RMSU=  8.23D-04    CP:  9.65D-01
 CoulSu:  requested number of processors reduced to:  21 ShMem   1 Linda.
 E= -79.7470489658657     Delta-E=       -0.071119464482 Rises=F Damp=T
 DIIS: error= 1.29D-02 at cycle   2 NSaved=   2.
 NSaved= 2 IEnMin= 2 EnMin= -79.7470489658657     IErMin= 2 ErrMin= 1.29D-02
 ErrMax= 1.29D-02  0.00D+00 EMaxC= 1.00D-01 BMatC= 1.40D-02 BMatP= 1.74D-01
 IDIUse=3 WtCom= 8.71D-01 WtEn= 1.29D-01
 Coeff-Com: -0.124D+00 0.112D+01
 Coeff-En:   0.000D+00 0.100D+01
 Coeff:     -0.108D+00 0.111D+01
 Gap=     0.449 Goal=   None    Shift=    0.000
 RMSDP=1.85D-03 MaxDP=8.18D-02 DE=-7.11D-02 OVMax= 9.11D-02

 Cycle   3  Pass 1  IDiag  1:
 RMSU=  1.20D-03    CP:  1.01D+00  2.70D+00
 CoulSu:  requested number of processors reduced to:  21 ShMem   1 Linda.
 E= -79.8139552147434     Delta-E=       -0.066906248878 Rises=F Damp=F
 DIIS: error= 3.13D-03 at cycle   3 NSaved=   3.
 NSaved= 3 IEnMin= 3 EnMin= -79.8139552147434     IErMin= 3 ErrMin= 3.13D-03
 ErrMax= 3.13D-03  0.00D+00 EMaxC= 1.00D-01 BMatC= 7.68D-04 BMatP= 1.40D-02
 IDIUse=3 WtCom= 9.69D-01 WtEn= 3.13D-02
 Coeff-Com: -0.621D-01 0.171D+00 0.891D+00
 Coeff-En:   0.000D+00 0.000D+00 0.100D+01
 Coeff:     -0.602D-01 0.165D+00 0.895D+00
 Gap=     0.415 Goal=   None    Shift=    0.000
 RMSDP=1.55D-04 MaxDP=7.76D-03 DE=-6.69D-02 OVMax= 8.22D-03

 Cycle   4  Pass 1  IDiag  1:
 RMSU=  1.16D-04    CP:  9.96D-01  2.64D+00  9.35D-01
 CoulSu:  requested number of processors reduced to:  21 ShMem   1 Linda.
 E= -79.8146601703293     Delta-E=       -0.000704955586 Rises=F Damp=F
 DIIS: error= 7.53D-04 at cycle   4 NSaved=   4.
 NSaved= 4 IEnMin= 4 EnMin= -79.8146601703293     IErMin= 4 ErrMin= 7.53D-04
 ErrMax= 7.53D-04  0.00D+00 EMaxC= 1.00D-01 BMatC= 2.18D-05 BMatP= 7.68D-04
 IDIUse=3 WtCom= 9.92D-01 WtEn= 7.53D-03
 Coeff-Com: -0.375D-02 0.905D-02 0.158D+00 0.836D+00
 Coeff-En:   0.000D+00 0.000D+00 0.000D+00 0.100D+01
 Coeff:     -0.372D-02 0.898D-02 0.157D+00 0.838D+00
 Gap=     0.416 Goal=   None    Shift=    0.000
 RMSDP=6.20D-05 MaxDP=2.19D-03 DE=-7.05D-04 OVMax= 1.76D-03

 Cycle   5  Pass 1  IDiag  1:
 RMSU=  3.97D-05    CP:  9.95D-01  2.61D+00  9.39D-01  1.35D+00
 CoulSu:  requested number of processors reduced to:  21 ShMem   1 Linda.
 E= -79.8146792027894     Delta-E=       -0.000019032460 Rises=F Damp=F
 DIIS: error= 5.73D-05 at cycle   5 NSaved=   5.
 NSaved= 5 IEnMin= 5 EnMin= -79.8146792027894     IErMin= 5 ErrMin= 5.73D-05
 ErrMax= 5.73D-05  0.00D+00 EMaxC= 1.00D-01 BMatC= 3.76D-07 BMatP= 2.18D-05
 IDIUse=1 WtCom= 1.00D+00 WtEn= 0.00D+00
 Coeff-Com:  0.281D-02-0.627D-02-0.273D-01 0.582D-02 0.102D+01
 Coeff:      0.281D-02-0.627D-02-0.273D-01 0.582D-02 0.102D+01
 Gap=     0.416 Goal=   None    Shift=    0.000
 RMSDP=1.59D-05 MaxDP=4.50D-04 DE=-1.90D-05 OVMax= 2.93D-04

 Cycle   6  Pass 1  IDiag  1:
 RMSU=  3.89D-06    CP:  9.95D-01  2.61D+00  9.43D-01  1.43D+00  1.26D+00
 CoulSu:  requested number of processors reduced to:  21 ShMem   1 Linda.
 E= -79.8146795730585     Delta-E=       -0.000000370269 Rises=F Damp=F
 DIIS: error= 9.11D-06 at cycle   6 NSaved=   6.
 NSaved= 6 IEnMin= 6 EnMin= -79.8146795730585     IErMin= 6 ErrMin= 9.11D-06
 ErrMax= 9.11D-06  0.00D+00 EMaxC= 1.00D-01 BMatC= 4.10D-09 BMatP= 3.76D-07
 IDIUse=1 WtCom= 1.00D+00 WtEn= 0.00D+00
 Coeff-Com: -0.457D-03 0.799D-03 0.318D-02-0.461D-02-0.161D+00 0.116D+01
 Coeff:     -0.457D-03 0.799D-03 0.318D-02-0.461D-02-0.161D+00 0.116D+01
 Gap=     0.416 Goal=   None    Shift=    0.000
 RMSDP=3.23D-06 MaxDP=1.81D-04 DE=-3.70D-07 OVMax= 5.20D-05

 Cycle   7  Pass 1  IDiag  1:
 RMSU=  1.19D-06    CP:  9.95D-01  2.61D+00  9.45D-01  1.43D+00  1.27D+00
                    CP:  1.15D+00
 CoulSu:  requested number of processors reduced to:  21 ShMem   1 Linda.
 E= -79.8146795795196     Delta-E=       -0.000000006461 Rises=F Damp=F
 DIIS: error= 7.90D-07 at cycle   7 NSaved=   7.
 NSaved= 7 IEnMin= 7 EnMin= -79.8146795795196     IErMin= 7 ErrMin= 7.90D-07
 ErrMax= 7.90D-07  0.00D+00 EMaxC= 1.00D-01 BMatC= 7.22D-11 BMatP= 4.10D-09
 IDIUse=1 WtCom= 1.00D+00 WtEn= 0.00D+00
 Coeff-Com: -0.593D-04 0.142D-03 0.292D-03-0.149D-02-0.248D-01 0.825D-01
 Coeff-Com:  0.943D+00
 Coeff:     -0.593D-04 0.142D-03 0.292D-03-0.149D-02-0.248D-01 0.825D-01
 Coeff:      0.943D+00
 Gap=     0.416 Goal=   None    Shift=    0.000
 RMSDP=4.77D-07 MaxDP=2.27D-05 DE=-6.46D-09 OVMax= 4.83D-06

 Cycle   8  Pass 1  IDiag  1:
 RMSU=  6.88D-08    CP:  9.95D-01  2.61D+00  9.44D-01  1.43D+00  1.27D+00
                    CP:  1.15D+00  8.99D-01
 CoulSu:  requested number of processors reduced to:  21 ShMem   1 Linda.
 E= -79.8146795795887     Delta-E=       -0.000000000069 Rises=F Damp=F
 DIIS: error= 1.07D-07 at cycle   8 NSaved=   8.
 NSaved= 8 IEnMin= 8 EnMin= -79.8146795795887     IErMin= 8 ErrMin= 1.07D-07
 ErrMax= 1.07D-07  0.00D+00 EMaxC= 1.00D-01 BMatC= 1.07D-12 BMatP= 7.22D-11
 IDIUse=1 WtCom= 1.00D+00 WtEn= 0.00D+00
 Coeff-Com:  0.134D-05-0.529D-06-0.599D-05-0.225D-04 0.568D-03-0.216D-02
 Coeff-Com: -0.114D+00 0.112D+01
 Coeff:      0.134D-05-0.529D-06-0.599D-05-0.225D-04 0.568D-03-0.216D-02
 Coeff:     -0.114D+00 0.112D+01
 Gap=     0.416 Goal=   None    Shift=    0.000
 DSYEVD-2 returned Info=         645 IAlg= 4 N=   322 NDim=   322 NE2=      324176 trying  DSYEV.
 RMSDP=7.20D-08 MaxDP=3.28D-06 DE=-6.91D-11 OVMax= 7.19D-07

 Cycle   9  Pass 1  IDiag  1:
 RMSU=  5.63D-09    CP:  9.95D-01  2.61D+00  9.44D-01  1.43D+00  1.27D+00
                    CP:  1.15D+00  8.79D-01  1.12D+00
 CoulSu:  requested number of processors reduced to:  21 ShMem   1 Linda.
 E= -79.8146795795896     Delta-E=       -0.000000000001 Rises=F Damp=F
 DIIS: error= 9.69D-09 at cycle   9 NSaved=   9.
 NSaved= 9 IEnMin= 9 EnMin= -79.8146795795896     IErMin= 9 ErrMin= 9.69D-09
 ErrMax= 9.69D-09  0.00D+00 EMaxC= 1.00D-01 BMatC= 4.41D-15 BMatP= 1.07D-12
 IDIUse=1 WtCom= 1.00D+00 WtEn= 0.00D+00
 Coeff-Com:  0.355D-06-0.879D-06-0.617D-06 0.138D-04 0.104D-03-0.294D-03
 Coeff-Com: -0.101D-02-0.488D-01 0.105D+01
 Coeff:      0.355D-06-0.879D-06-0.617D-06 0.138D-04 0.104D-03-0.294D-03
 Coeff:     -0.101D-02-0.488D-01 0.105D+01
 Gap=     0.416 Goal=   None    Shift=    0.000
 RMSDP=3.13D-09 MaxDP=1.58D-07 DE=-9.24D-13 OVMax= 7.08D-08

 SCF Done:  E(RM062X) =  -79.8146795796     A.U. after    9 cycles
            NFock=  9  Conv=0.31D-08     -V/T= 2.0052
 KE= 7.940055935236D+01 PE=-2.687127748111D+02 EE= 6.723357161619D+01
 Leave Link  502 at Sat Apr 17 20:23:02 2021, MaxMem=   104857600 cpu:           18828.0 elap:             404.1
 (Enter /s/ls4/users/knvvv/bin/g16sse/l601.exe)
 Copying SCF densities to generalized density rwf, IOpCl= 0 IROHF=0.

 **********************************************************************

            Population analysis using the SCF density.

 **********************************************************************

 Orbital symmetries:
       Occupied  (A1G) (A2U) (A1G) (A2U) (EU) (EU) (A1G) (EG) (EG)
       Virtual   (A1G) (A2U) (EU) (EU) (A1G) (EG) (EG) (EG) (EG)
                 (EU) (EU) (A2U) (A1G) (A2U) (EU) (EU) (A2U) (A1U)
                 (A1G) (EG) (EG) (EU) (EU) (EG) (EG) (A2G) (A1G)
                 (EG) (EG) (A2U) (EU) (EU) (A1G) (EG) (EG) (A2U)
                 (EU) (EU) (EU) (EU) (A2U) (EG) (EG) (EU) (EU)
                 (A1G) (A2U) (EU) (EU) (A2U) (A1G) (EG) (EG) (A1U)
                 (EU) (EU) (EG) (EG) (A1G) (EG) (EG) (A2G) (EU)
                 (EU) (A2U) (A1G) (A2U) (EG) (EG) (A2U) (EU) (EU)
                 (EU) (EU) (EG) (EG) (A1G) (A1G) (A2U) (EG) (EG)
                 (A1G) (EU) (EU) (EG) (EG) (EU) (EU) (A2U) (A1U)
                 (A1G) (EG) (EG) (EU) (EU) (EG) (EG) (A2G) (EU)
                 (EU) (A2U) (EU) (EU) (EG) (EG) (A1G) (A1U) (A2U)
                 (EU) (EU) (EG) (EG) (A2G) (A2U) (A1G) (EU) (EU)
                 (A2U) (EG) (EG) (EG) (EG) (EU) (EU) (A2U) (A1G)
                 (EG) (EG) (EU) (EU) (A1U) (A1G) (EG) (EG) (A2G)
                 (A1G) (A2U) (EU) (EU) (A1U) (EG) (EG) (A1G) (EU)
                 (EU) (EG) (EG) (A1G) (A2U) (EU) (EU) (A2U) (A1G)
                 (EG) (EG) (EU) (EU) (A2G) (A1G) (EG) (EG) (EU)
                 (EU) (A2U) (EG) (EG) (EU) (EU) (A2U) (EG) (EG)
                 (EU) (EU) (A1U) (EG) (EG) (EU) (EU) (A2G) (A1G)
                 (EU) (EU) (A2U) (EG) (EG) (A2G) (EU) (EU) (A1U)
                 (EG) (EG) (A2U) (A1G) (A1U) (EG) (EG) (A2U) (EU)
                 (EU) (EG) (EG) (A2G) (A1G) (A2U) (A1G) (EU) (EU)
                 (EG) (EG) (EU) (EU) (A1G) (EU) (EU) (A1U) (EG)
                 (EG) (EU) (EU) (A1G) (A2U) (A2U) (EG) (EG) (A2G)
                 (A1G) (EU) (EU) (EG) (EG) (A1G) (EU) (EU) (A1U)
                 (EG) (EG) (A2U) (EG) (EG) (A2U) (EG) (EG) (A1G)
                 (EU) (EU) (A2G) (EU) (EU) (EG) (EG) (A2U) (EU)
                 (EU) (A1G) (A1U) (A2U) (EU) (EU) (EG) (EG) (A2G)
                 (EU) (EU) (EG) (EG) (A1G) (A2U) (A1G) (EU) (EU)
                 (EG) (EG) (A2U) (EG) (EG) (A1U) (EG) (EG) (EU)
                 (EU) (A1G) (EU) (EU) (A2G) (A2U) (A2U) (EG) (EG)
                 (EU) (EU) (EG) (EG) (EU) (EU) (A1G) (A2U) (EG)
                 (EG) (A1G) (A1U) (EU) (EU) (A2G) (EG) (EG) (EU)
                 (EU) (A2U) (A1G) (A1G) (A2U) (A1G) (A2U)
 The electronic state is 1-A1G.
 Alpha  occ. eigenvalues --  -10.52492 -10.52455  -0.84888  -0.70127  -0.50291
 Alpha  occ. eigenvalues --   -0.50291  -0.42815  -0.40362  -0.40362
 Alpha virt. eigenvalues --    0.01242   0.03150   0.07288   0.07288   0.10657
 Alpha virt. eigenvalues --    0.11132   0.11132   0.13688   0.13688   0.16653
 Alpha virt. eigenvalues --    0.16653   0.17218   0.19730   0.20598   0.20807
 Alpha virt. eigenvalues --    0.20807   0.22822   0.24110   0.28036   0.29446
 Alpha virt. eigenvalues --    0.29446   0.30166   0.30166   0.31156   0.31156
 Alpha virt. eigenvalues --    0.31443   0.32369   0.33168   0.33168   0.34423
 Alpha virt. eigenvalues --    0.36572   0.36572   0.37085   0.37718   0.37718
 Alpha virt. eigenvalues --    0.37870   0.40878   0.40878   0.41373   0.41373
 Alpha virt. eigenvalues --    0.46287   0.52894   0.52894   0.54354   0.54354
 Alpha virt. eigenvalues --    0.55707   0.59666   0.64523   0.64523   0.66109
 Alpha virt. eigenvalues --    0.66738   0.68603   0.68603   0.82158   0.85672
 Alpha virt. eigenvalues --    0.85672   0.85793   0.85793   0.85810   0.88635
 Alpha virt. eigenvalues --    0.88635   0.88738   0.90842   0.90842   0.93573
 Alpha virt. eigenvalues --    1.01278   1.02726   1.05470   1.05470   1.07492
 Alpha virt. eigenvalues --    1.10062   1.10062   1.20485   1.20485   1.21782
 Alpha virt. eigenvalues --    1.21782   1.22494   1.33228   1.35102   1.40096
 Alpha virt. eigenvalues --    1.40096   1.41972   1.44886   1.44886   1.48070
 Alpha virt. eigenvalues --    1.48070   1.53018   1.53018   1.59712   1.82362
 Alpha virt. eigenvalues --    1.88847   1.90877   1.90877   1.92266   1.92266
 Alpha virt. eigenvalues --    2.01144   2.01144   2.05394   2.10317   2.10317
 Alpha virt. eigenvalues --    2.13422   2.17385   2.17385   2.17589   2.17589
 Alpha virt. eigenvalues --    2.17659   2.17954   2.18887   2.23022   2.23022
 Alpha virt. eigenvalues --    2.23615   2.23615   2.23674   2.25558   2.38559
 Alpha virt. eigenvalues --    2.44863   2.44863   2.52391   2.57098   2.57098
 Alpha virt. eigenvalues --    2.64032   2.64032   2.67595   2.67595   2.72971
 Alpha virt. eigenvalues --    2.80798   2.82455   2.82455   2.84815   2.84815
 Alpha virt. eigenvalues --    2.85642   2.87074   2.93749   2.93749   2.98652
 Alpha virt. eigenvalues --    3.02009   3.02856   3.03952   3.03952   3.11824
 Alpha virt. eigenvalues --    3.12192   3.12192   3.16526   3.19163   3.19163
 Alpha virt. eigenvalues --    3.31083   3.31083   3.33373   3.36904   3.38655
 Alpha virt. eigenvalues --    3.38655   3.58899   3.59195   3.68937   3.68937
 Alpha virt. eigenvalues --    3.74559   3.74559   3.86175   3.88519   3.91793
 Alpha virt. eigenvalues --    3.91793   3.92365   3.92365   3.94093   4.16933
 Alpha virt. eigenvalues --    4.16933   4.29129   4.29129   4.64812   5.09167
 Alpha virt. eigenvalues --    5.09167   5.16653   5.16653   5.28909   5.42818
 Alpha virt. eigenvalues --    5.42818   5.49046   5.49046   5.49705   5.51677
 Alpha virt. eigenvalues --    5.68956   5.68956   5.73571   5.77395   5.77395
 Alpha virt. eigenvalues --    5.79419   5.81220   5.81220   5.82428   5.84979
 Alpha virt. eigenvalues --    5.84979   5.92542   5.94646   6.02515   6.02978
 Alpha virt. eigenvalues --    6.02978   6.03693   6.11209   6.11209   6.16195
 Alpha virt. eigenvalues --    6.16195   6.19016   6.19544   6.30124   6.33144
 Alpha virt. eigenvalues --    6.34026   6.34026   6.38622   6.38622   6.47705
 Alpha virt. eigenvalues --    6.47705   6.58113   6.59819   6.59819   6.64158
 Alpha virt. eigenvalues --    6.67426   6.67426   6.74709   6.74709   6.86934
 Alpha virt. eigenvalues --    6.90425   6.97603   7.04261   7.04261   7.13236
 Alpha virt. eigenvalues --    7.20013   7.28337   7.28337   7.30275   7.30275
 Alpha virt. eigenvalues --    7.32370   7.35644   7.35644   7.36991   7.45445
 Alpha virt. eigenvalues --    7.45445   7.47359   7.49289   7.49289   7.57173
 Alpha virt. eigenvalues --    7.58899   7.58899   7.59709   7.60216   7.60216
 Alpha virt. eigenvalues --    7.71401   7.72005   7.72005   7.79930   7.79930
 Alpha virt. eigenvalues --    7.91345   7.92819   7.92819   7.98101   8.13715
 Alpha virt. eigenvalues --    8.14698   8.15544   8.15544   8.20376   8.20376
 Alpha virt. eigenvalues --    8.25530   8.27172   8.27172   8.27401   8.27401
 Alpha virt. eigenvalues --    8.30738   8.38637   8.42357   8.42777   8.42777
 Alpha virt. eigenvalues --    8.45421   8.45421   8.56316   8.59640   8.59640
 Alpha virt. eigenvalues --    8.65052   8.79641   8.79641   8.86401   8.86401
 Alpha virt. eigenvalues --    8.88853   8.93980   8.93980   8.95720   9.22879
 Alpha virt. eigenvalues --    9.53807   9.57487   9.57487   9.59601   9.59601
 Alpha virt. eigenvalues --    9.70390   9.70390   9.70480   9.70480   9.71816
 Alpha virt. eigenvalues --    9.98650  10.05887  10.05887  10.06174  10.09905
 Alpha virt. eigenvalues --   10.21878  10.21878  10.46982  11.74655  11.74655
 Alpha virt. eigenvalues --   11.87534  11.87534  13.12430  13.14099  29.13657
 Alpha virt. eigenvalues --   29.18569 146.63942 146.68268
          Condensed to atoms (all electrons):
               1          2          3          4          5          6
     1  C    5.698386  -0.120373   0.471790   0.471790   0.471790  -0.229769
     2  C   -0.120373   5.698386  -0.229769  -0.229769  -0.229769   0.471790
     3  H    0.471790  -0.229769   0.684233   0.044345   0.044345  -0.053392
     4  H    0.471790  -0.229769   0.044345   0.684233   0.044345  -0.031454
     5  H    0.471790  -0.229769   0.044345   0.044345   0.684233  -0.031454
     6  H   -0.229769   0.471790  -0.053392  -0.031454  -0.031454   0.684233
     7  H   -0.229769   0.471790  -0.031454  -0.031454  -0.053392   0.044345
     8  H   -0.229769   0.471790  -0.031454  -0.053392  -0.031454   0.044345
               7          8
     1  C   -0.229769  -0.229769
     2  C    0.471790   0.471790
     3  H   -0.031454  -0.031454
     4  H   -0.031454  -0.053392
     5  H   -0.053392  -0.031454
     6  H    0.044345   0.044345
     7  H    0.684233   0.044345
     8  H    0.044345   0.684233
 Mulliken charges:
               1
     1  C   -0.304074
     2  C   -0.304074
     3  H    0.101358
     4  H    0.101358
     5  H    0.101358
     6  H    0.101358
     7  H    0.101358
     8  H    0.101358
 Sum of Mulliken charges =   0.00000
 Mulliken charges with hydrogens summed into heavy atoms:
               1
     1  C    0.000000
     2  C    0.000000
 Electronic spatial extent (au):  <R**2>=            109.7932
 Charge=              0.0000 electrons
 Dipole moment (field-independent basis, Debye):
    X=              0.0000    Y=              0.0000    Z=              0.0000  Tot=              0.0000
 Quadrupole moment (field-independent basis, Debye-Ang):
   XX=            -14.9415   YY=            -14.9415   ZZ=            -15.6265
   XY=             -0.0000   XZ=              0.0000   YZ=              0.0000
 Traceless Quadrupole moment (field-independent basis, Debye-Ang):
   XX=              0.2283   YY=              0.2283   ZZ=             -0.4567
   XY=             -0.0000   XZ=              0.0000   YZ=              0.0000
 Octapole moment (field-independent basis, Debye-Ang**2):
  XXX=              0.0000  YYY=              0.0000  ZZZ=             -0.0000  XYY=              0.0000
  XXY=             -0.0000  XXZ=              0.0000  XZZ=              0.0000  YZZ=              0.0000
  YYZ=              0.0000  XYZ=             -0.0000
 Hexadecapole moment (field-independent basis, Debye-Ang**3):
 XXXX=            -30.1870 YYYY=            -30.1870 ZZZZ=            -96.6584 XXXY=              0.0000
 XXXZ=              0.0000 YYYX=              0.0000 YYYZ=              1.5045 ZZZX=              0.0000
 ZZZY=              0.0000 XXYY=            -10.0623 XXZZ=            -19.9233 YYZZ=            -19.9233
 XXYZ=             -1.5045 YYXZ=              0.0000 ZZXY=              0.0000
 N-N= 4.226396426296D+01 E-N=-2.687127750355D+02  KE= 7.940055935236D+01
 PrsmSu:  requested number of processors reduced to:  21 ShMem   1 Linda.
 No NMR shielding tensors so no spin-rotation constants.
 Leave Link  601 at Sat Apr 17 20:23:14 2021, MaxMem=   104857600 cpu:             539.3 elap:              11.6
 (Enter /s/ls4/users/knvvv/bin/g16sse/l801.exe)
 DoSCS=F DFT=T ScalE2(SS,OS)=  1.000000  1.000000
 Range of M.O.s used for correlation:     1   322
 NBasis=   324 NAE=     9 NBE=     9 NFC=     0 NFV=     0
 NROrb=    322 NOA=     9 NOB=     9 NVA=   313 NVB=   313

 **** Warning!!: The largest alpha MO coefficient is  0.21558513D+03

 Leave Link  801 at Sat Apr 17 20:23:14 2021, MaxMem=   104857600 cpu:               4.2 elap:               0.1
 (Enter /s/ls4/users/knvvv/bin/g16sse/l914.exe)
 RHF ground state
 Doing stability rather than CIS.
 Two-electron integrals replicated using symmetry.
 MDV=   104857600 DFT=T DoStab=T Mixed=T DoRPA=F DoScal=F NonHer=F
 Making orbital integer symmetry assigments:
 Orbital symmetries:
       Occupied  (A1G) (A2U) (A1G) (A2U) (EU) (EU) (A1G) (EG) (EG)
       Virtual   (A1G) (A2U) (EU) (EU) (A1G) (EG) (EG) (EG) (EG)
                 (EU) (EU) (A2U) (A1G) (A2U) (EU) (EU) (A2U) (A1U)
                 (A1G) (EG) (EG) (EU) (EU) (EG) (EG) (A2G) (A1G)
                 (EG) (EG) (A2U) (EU) (EU) (A1G) (EG) (EG) (A2U)
                 (EU) (EU) (EU) (EU) (A2U) (EG) (EG) (EU) (EU)
                 (A1G) (A2U) (EU) (EU) (A2U) (A1G) (EG) (EG) (A1U)
                 (EU) (EU) (EG) (EG) (A1G) (EG) (EG) (A2G) (EU)
                 (EU) (A2U) (A1G) (A2U) (EG) (EG) (A2U) (EU) (EU)
                 (EU) (EU) (EG) (EG) (A1G) (A1G) (A2U) (EG) (EG)
                 (A1G) (EU) (EU) (EG) (EG) (EU) (EU) (A2U) (A1U)
                 (A1G) (EG) (EG) (EU) (EU) (EG) (EG) (A2G) (EU)
                 (EU) (A2U) (EU) (EU) (EG) (EG) (A1G) (A1U) (A2U)
                 (EU) (EU) (EG) (EG) (A2G) (A2U) (A1G) (EU) (EU)
                 (A2U) (EG) (EG) (EG) (EG) (EU) (EU) (A2U) (A1G)
                 (EG) (EG) (EU) (EU) (A1U) (A1G) (EG) (EG) (A2G)
                 (A1G) (A2U) (EU) (EU) (A1U) (EG) (EG) (A1G) (EU)
                 (EU) (EG) (EG) (A1G) (A2U) (EU) (EU) (A2U) (A1G)
                 (EG) (EG) (EU) (EU) (A2G) (A1G) (EG) (EG) (EU)
                 (EU) (A2U) (EG) (EG) (EU) (EU) (A2U) (EG) (EG)
                 (EU) (EU) (A1U) (EG) (EG) (EU) (EU) (A2G) (A1G)
                 (EU) (EU) (A2U) (EG) (EG) (A2G) (EU) (EU) (A1U)
                 (EG) (EG) (A2U) (A1G) (A1U) (EG) (EG) (A2U) (EU)
                 (EU) (EG) (EG) (A2G) (A1G) (A2U) (A1G) (EU) (EU)
                 (EG) (EG) (EU) (EU) (A1G) (EU) (EU) (A1U) (EG)
                 (EG) (EU) (EU) (A1G) (A2U) (A2U) (EG) (EG) (A2G)
                 (A1G) (EU) (EU) (EG) (EG) (A1G) (EU) (EU) (A1U)
                 (EG) (EG) (A2U) (EG) (EG) (A2U) (EG) (EG) (A1G)
                 (EU) (EU) (A2G) (EU) (EU) (EG) (EG) (A2U) (EU)
                 (EU) (A1G) (A1U) (A2U) (EU) (EU) (EG) (EG) (A2G)
                 (EU) (EU) (EG) (EG) (A1G) (A2U) (A1G) (EU) (EU)
                 (EG) (EG) (A2U) (EG) (EG) (A1U) (EG) (EG) (EU)
                 (EU) (A1G) (EU) (EU) (A2G) (A2U) (A2U) (EG) (EG)
                 (EU) (EU) (EG) (EG) (EU) (EU) (A1G) (A2U) (EG)
                 (EG) (A1G) (A1U) (EU) (EU) (A2G) (EG) (EG) (EU)
                 (EU) (A2U) (A1G) (A1G) (A2U) (A1G) (A2U)
    24 initial guesses have been made.
 Convergence on wavefunction:    0.001000000000000
 Davidson Disk Diagonalization:  ConvIn= 1.00D-03 SkipCon=T Conv= 1.00D-03.
 Max sub-space:  2000 roots to seek:    24 dimension of matrix:         5634
 Iteration     1 Dimension    24 NMult     0 NNew     24
 Estimated number of processors is:   18
 CISAX will form     1 AO SS matrices at one time.
 NMat=     1 NSing=     1 JSym2X= 2.
 FoFJK:  IHMeth= 1 ICntrl=       0 DoSepK=F KAlg= 0 I1Cent=           0 FoldK=F
 IRaf= 990000000 NMat=       1 IRICut=       1 DoRegI=T DoRafI=F ISym2E= 2 IDoP0=0 IntGTp=1.
 FoFCou: FMM=F IPFlag=           0 FMFlag=      100000 FMFlg1=           0
         NFxFlg=           0 DoJE=F BraDBF=F KetDBF=F FulRan=T
         wScrn=  0.000000 ICntrl=         0 IOpCl=  0 I1Cent=           0 NGrid=           0
         NMat0=    1 NMatS0=      1 NMatT0=    0 NMatD0=    1 NMtDS0=    0 NMtDT0=    0
 Integrals replicated using symmetry in FoFCou.
 CoulSu:  requested number of processors reduced to:  17 ShMem   1 Linda.
 NMat=     1 NSing=     1 JSym2X= 2.
 CoulSu:  requested number of processors reduced to:  17 ShMem   1 Linda.
 NMat=     1 NSing=     1 JSym2X= 2.
 CoulSu:  requested number of processors reduced to:  17 ShMem   1 Linda.
 NMat=     1 NSing=     1 JSym2X= 2.
 CoulSu:  requested number of processors reduced to:  17 ShMem   1 Linda.
 NMat=     1 NSing=     1 JSym2X= 2.
 CoulSu:  requested number of processors reduced to:  17 ShMem   1 Linda.
 NMat=     1 NSing=     1 JSym2X= 2.
 CoulSu:  requested number of processors reduced to:  17 ShMem   1 Linda.
 NMat=     1 NSing=     1 JSym2X= 2.
 CoulSu:  requested number of processors reduced to:  17 ShMem   1 Linda.
 NMat=     1 NSing=     1 JSym2X= 2.
 CoulSu:  requested number of processors reduced to:  17 ShMem   1 Linda.
 NMat=     1 NSing=     1 JSym2X= 2.
 CoulSu:  requested number of processors reduced to:  17 ShMem   1 Linda.
 NMat=     1 NSing=     1 JSym2X= 2.
 CoulSu:  requested number of processors reduced to:  17 ShMem   1 Linda.
 NMat=     1 NSing=     1 JSym2X= 2.
 CoulSu:  requested number of processors reduced to:  17 ShMem   1 Linda.
 NMat=     1 NSing=     1 JSym2X= 2.
 CoulSu:  requested number of processors reduced to:  17 ShMem   1 Linda.
 NMat=     1 NSing=     0 JSym2X= 2.
 CoulSu:  requested number of processors reduced to:  17 ShMem   1 Linda.
 NMat=     1 NSing=     0 JSym2X= 2.
 CoulSu:  requested number of processors reduced to:  17 ShMem   1 Linda.
 NMat=     1 NSing=     0 JSym2X= 2.
 CoulSu:  requested number of processors reduced to:  17 ShMem   1 Linda.
 NMat=     1 NSing=     0 JSym2X= 2.
 CoulSu:  requested number of processors reduced to:  17 ShMem   1 Linda.
 NMat=     1 NSing=     0 JSym2X= 2.
 CoulSu:  requested number of processors reduced to:  17 ShMem   1 Linda.
 NMat=     1 NSing=     0 JSym2X= 2.
 CoulSu:  requested number of processors reduced to:  17 ShMem   1 Linda.
 NMat=     1 NSing=     0 JSym2X= 2.
 CoulSu:  requested number of processors reduced to:  17 ShMem   1 Linda.
 NMat=     1 NSing=     0 JSym2X= 2.
 CoulSu:  requested number of processors reduced to:  17 ShMem   1 Linda.
 NMat=     1 NSing=     0 JSym2X= 2.
 CoulSu:  requested number of processors reduced to:  17 ShMem   1 Linda.
 NMat=     1 NSing=     0 JSym2X= 2.
 CoulSu:  requested number of processors reduced to:  17 ShMem   1 Linda.
 NMat=     1 NSing=     0 JSym2X= 2.
 CoulSu:  requested number of processors reduced to:  17 ShMem   1 Linda.
 NMat=     1 NSing=     0 JSym2X= 2.
 CoulSu:  requested number of processors reduced to:  17 ShMem   1 Linda.
 New state      1 was old state      4
 Excitation Energies [eV] at current iteration:
 Root      1 :     8.963819861876294
 Root      2 :     8.963829644807401
 Root      3 :     9.065344739281652
 Root      4 :     9.065356611000075
 Root      5 :     9.525695119579666
 Root      6 :     9.683643750190221
 Root      7 :     9.683648964896276
 Root      8 :     9.808956644707811
 Root      9 :     9.808961295336553
 Root     10 :     9.912893576375277
 Root     11 :    10.396340436323690
 Root     12 :    10.503620728344970
 Root     13 :    10.518906076679590
 Root     14 :    10.529585718986570
 Root     15 :    10.564767093839650
 Root     16 :    10.564768630172830
 Root     17 :    10.582876040241030
 Root     18 :    10.582889886751720
 Root     19 :    10.676091045011980
 Root     20 :    11.092306410870980
 Root     21 :    11.092331147511210
 Root     22 :    11.205692442578340
 Root     23 :    11.205721463119840
 Root     24 :    11.301036025063010
 Iteration     2 Dimension    48 NMult    24 NNew     24
 Estimated number of processors is:   18
 CISAX will form     1 AO SS matrices at one time.
 NMat=     1 NSing=     1 JSym2X= 2.
 CoulSu:  requested number of processors reduced to:  17 ShMem   1 Linda.
 NMat=     1 NSing=     1 JSym2X= 2.
 CoulSu:  requested number of processors reduced to:  17 ShMem   1 Linda.
 NMat=     1 NSing=     1 JSym2X= 2.
 CoulSu:  requested number of processors reduced to:  17 ShMem   1 Linda.
 NMat=     1 NSing=     1 JSym2X= 2.
 CoulSu:  requested number of processors reduced to:  17 ShMem   1 Linda.
 NMat=     1 NSing=     1 JSym2X= 2.
 CoulSu:  requested number of processors reduced to:  17 ShMem   1 Linda.
 NMat=     1 NSing=     1 JSym2X= 2.
 CoulSu:  requested number of processors reduced to:  17 ShMem   1 Linda.
 NMat=     1 NSing=     1 JSym2X= 2.
 CoulSu:  requested number of processors reduced to:  17 ShMem   1 Linda.
 NMat=     1 NSing=     1 JSym2X= 2.
 CoulSu:  requested number of processors reduced to:  17 ShMem   1 Linda.
 NMat=     1 NSing=     1 JSym2X= 2.
 CoulSu:  requested number of processors reduced to:  17 ShMem   1 Linda.
 NMat=     1 NSing=     1 JSym2X= 2.
 CoulSu:  requested number of processors reduced to:  17 ShMem   1 Linda.
 NMat=     1 NSing=     1 JSym2X= 2.
 CoulSu:  requested number of processors reduced to:  17 ShMem   1 Linda.
 NMat=     1 NSing=     1 JSym2X= 2.
 CoulSu:  requested number of processors reduced to:  17 ShMem   1 Linda.
 NMat=     1 NSing=     0 JSym2X= 2.
 CoulSu:  requested number of processors reduced to:  17 ShMem   1 Linda.
 NMat=     1 NSing=     0 JSym2X= 2.
 CoulSu:  requested number of processors reduced to:  17 ShMem   1 Linda.
 NMat=     1 NSing=     0 JSym2X= 2.
 CoulSu:  requested number of processors reduced to:  17 ShMem   1 Linda.
 NMat=     1 NSing=     0 JSym2X= 2.
 CoulSu:  requested number of processors reduced to:  17 ShMem   1 Linda.
 NMat=     1 NSing=     0 JSym2X= 2.
 CoulSu:  requested number of processors reduced to:  17 ShMem   1 Linda.
 NMat=     1 NSing=     0 JSym2X= 2.
 CoulSu:  requested number of processors reduced to:  17 ShMem   1 Linda.
 NMat=     1 NSing=     0 JSym2X= 2.
 CoulSu:  requested number of processors reduced to:  17 ShMem   1 Linda.
 NMat=     1 NSing=     0 JSym2X= 2.
 CoulSu:  requested number of processors reduced to:  17 ShMem   1 Linda.
 NMat=     1 NSing=     0 JSym2X= 2.
 CoulSu:  requested number of processors reduced to:  17 ShMem   1 Linda.
 NMat=     1 NSing=     0 JSym2X= 2.
 CoulSu:  requested number of processors reduced to:  17 ShMem   1 Linda.
 NMat=     1 NSing=     0 JSym2X= 2.
 CoulSu:  requested number of processors reduced to:  17 ShMem   1 Linda.
 NMat=     1 NSing=     0 JSym2X= 2.
 CoulSu:  requested number of processors reduced to:  17 ShMem   1 Linda.
 Root      1 not converged, maximum delta is    0.100296980875373
 Excitation Energies [eV] at current iteration:
 Root      1 :     8.670890646199423   Change is   -0.292929215676870
 Root      2 :     8.670942953012677   Change is   -0.292886691794724
 Root      3 :     8.924688901818122   Change is   -0.140655837463531
 Root      4 :     8.924710778802034   Change is   -0.140645832198041
 Root      5 :     9.263235644363673   Change is   -0.262459475215993
 Root      6 :     9.406678041527375   Change is   -0.276965708662846
 Root      7 :     9.406709669809066   Change is   -0.276939295087210
 Root      8 :     9.680375636699521   Change is   -0.128581008008289
 Root      9 :     9.680382787859044   Change is   -0.128578507477509
 Root     10 :     9.701759181604084   Change is   -0.211134394771194
 Root     11 :    10.117136113616010   Change is   -0.558954931395974
 Root     12 :    10.206416246261260   Change is   -0.189924190062433
 Root     13 :    10.346257937556860   Change is   -0.236618102684164
 Root     14 :    10.346282673745940   Change is   -0.236607213005773
 Root     15 :    10.409039362936400   Change is   -0.094581365408568
 Root     16 :    10.416604413823700   Change is   -0.102301662855889
 Root     17 :    10.425976981635680   Change is   -0.138790112203961
 Root     18 :    10.425979041523270   Change is   -0.138789588649553
 Root     19 :    10.437308895980130   Change is   -0.092276823006441
 Root     20 :    10.873049229089870   Change is   -0.427986795973144
 Root     21 :    10.926415031097340   Change is   -0.165891379773639
 Root     22 :    10.926468861151720   Change is   -0.165862286359491
 Root     23 :    11.091066701445060   Change is   -0.114625741133284
 Root     24 :    11.091098784943890   Change is   -0.114622678175952
 Iteration     3 Dimension    54 NMult    48 NNew      6
 Estimated number of processors is:   18
 CISAX will form     1 AO SS matrices at one time.
 NMat=     1 NSing=     1 JSym2X= 2.
 CoulSu:  requested number of processors reduced to:  17 ShMem   1 Linda.
 NMat=     1 NSing=     1 JSym2X= 2.
 CoulSu:  requested number of processors reduced to:  17 ShMem   1 Linda.
 NMat=     1 NSing=     1 JSym2X= 2.
 CoulSu:  requested number of processors reduced to:  17 ShMem   1 Linda.
 NMat=     1 NSing=     0 JSym2X= 2.
 CoulSu:  requested number of processors reduced to:  17 ShMem   1 Linda.
 NMat=     1 NSing=     0 JSym2X= 2.
 CoulSu:  requested number of processors reduced to:  17 ShMem   1 Linda.
 NMat=     1 NSing=     0 JSym2X= 2.
 CoulSu:  requested number of processors reduced to:  17 ShMem   1 Linda.
 Root      1 not converged, maximum delta is    0.016220680301972
 Excitation Energies [eV] at current iteration:
 Root      1 :     8.638606776265590   Change is   -0.032283869933833
 Root      2 :     8.638671191597069   Change is   -0.032271761415608
 Root      3 :     8.915717706555450   Change is   -0.008971195262673
 Root      4 :     8.915740141454927   Change is   -0.008970637347106
 Root      5 :     9.220866946891032   Change is   -0.042368697472640
 Root      6 :     9.670145081067933   Change is   -0.010230555631589
 Iteration     4 Dimension    60 NMult    54 NNew      6
 Estimated number of processors is:   18
 CISAX will form     1 AO SS matrices at one time.
 NMat=     1 NSing=     1 JSym2X= 2.
 CoulSu:  requested number of processors reduced to:  17 ShMem   1 Linda.
 NMat=     1 NSing=     1 JSym2X= 2.
 CoulSu:  requested number of processors reduced to:  17 ShMem   1 Linda.
 NMat=     1 NSing=     1 JSym2X= 2.
 CoulSu:  requested number of processors reduced to:  17 ShMem   1 Linda.
 NMat=     1 NSing=     0 JSym2X= 2.
 CoulSu:  requested number of processors reduced to:  17 ShMem   1 Linda.
 NMat=     1 NSing=     0 JSym2X= 2.
 CoulSu:  requested number of processors reduced to:  17 ShMem   1 Linda.
 NMat=     1 NSing=     0 JSym2X= 2.
 CoulSu:  requested number of processors reduced to:  17 ShMem   1 Linda.
 Root      1 not converged, maximum delta is    0.007656360727848
 Excitation Energies [eV] at current iteration:
 Root      1 :     8.633774550495541   Change is   -0.004832225770050
 Root      2 :     8.633841398659682   Change is   -0.004829792937386
 Root      3 :     8.914945260643039   Change is   -0.000772445912411
 Root      4 :     8.914967674455767   Change is   -0.000772466999161
 Root      5 :     9.200594188454312   Change is   -0.020272758436720
 Root      6 :     9.669588168101058   Change is   -0.000556912966876
 Iteration     5 Dimension    66 NMult    60 NNew      6
 Estimated number of processors is:   18
 CISAX will form     1 AO SS matrices at one time.
 NMat=     1 NSing=     1 JSym2X= 2.
 CoulSu:  requested number of processors reduced to:  17 ShMem   1 Linda.
 NMat=     1 NSing=     1 JSym2X= 2.
 CoulSu:  requested number of processors reduced to:  17 ShMem   1 Linda.
 NMat=     1 NSing=     1 JSym2X= 2.
 CoulSu:  requested number of processors reduced to:  17 ShMem   1 Linda.
 NMat=     1 NSing=     0 JSym2X= 2.
 CoulSu:  requested number of processors reduced to:  17 ShMem   1 Linda.
 NMat=     1 NSing=     0 JSym2X= 2.
 CoulSu:  requested number of processors reduced to:  17 ShMem   1 Linda.
 NMat=     1 NSing=     0 JSym2X= 2.
 CoulSu:  requested number of processors reduced to:  17 ShMem   1 Linda.
 Root      1 not converged, maximum delta is    0.001902988162759
 Excitation Energies [eV] at current iteration:
 Root      1 :     8.633365911488024   Change is   -0.000408639007516
 Root      2 :     8.633432862894514   Change is   -0.000408535765168
 Root      3 :     8.914864455968223   Change is   -0.000080804674816
 Root      4 :     8.914886848701002   Change is   -0.000080825754765
 Root      5 :     9.195702972086002   Change is   -0.004891216368310
 Root      6 :     9.669543101899372   Change is   -0.000045066201686
 Iteration     6 Dimension    72 NMult    66 NNew      6
 Estimated number of processors is:   18
 CISAX will form     1 AO SS matrices at one time.
 NMat=     1 NSing=     1 JSym2X= 2.
 CoulSu:  requested number of processors reduced to:  17 ShMem   1 Linda.
 NMat=     1 NSing=     1 JSym2X= 2.
 CoulSu:  requested number of processors reduced to:  17 ShMem   1 Linda.
 NMat=     1 NSing=     1 JSym2X= 2.
 CoulSu:  requested number of processors reduced to:  17 ShMem   1 Linda.
 NMat=     1 NSing=     0 JSym2X= 2.
 CoulSu:  requested number of processors reduced to:  17 ShMem   1 Linda.
 NMat=     1 NSing=     0 JSym2X= 2.
 CoulSu:  requested number of processors reduced to:  17 ShMem   1 Linda.
 NMat=     1 NSing=     0 JSym2X= 2.
 CoulSu:  requested number of processors reduced to:  17 ShMem   1 Linda.
 Root      1 has converged.
 Excitation Energies [eV] at current iteration:
 Root      1 :     8.633336533012647   Change is   -0.000029378475378
 Root      2 :     8.633403480094488   Change is   -0.000029382800027
 Root      3 :     8.914858537488865   Change is   -0.000005918479358
 Root      4 :     8.914880928525372   Change is   -0.000005920175630
 Root      5 :     9.194942982878024   Change is   -0.000759989207980
 Root      6 :     9.669541295837210   Change is   -0.000001806062163
 Convergence achieved on expansion vectors.
 ***********************************************************************
 Stability analysis using <AA,BB:AA,BB> singles matrix:
 ***********************************************************************
 1PDM for each excited state written to RWF  633
 Ground to excited state transition densities written to RWF  633

 Eigenvectors of the stability matrix:
 
 Eigenvector   1:      Triplet-EG   Eigenvalue= 0.3172693  <S**2>=2.000
       8 -> 10         0.59112
       8 -> 22        -0.11309
       9 -> 10        -0.32711
 The wavefunction is stable under the perturbations considered.
 Leave Link  914 at Sat Apr 17 20:34:09 2021, MaxMem=   104857600 cpu:           26027.4 elap:             655.1
 (Enter /s/ls4/users/knvvv/bin/g16sse/l508.exe)
 The wavefunction is already stable.
 Leave Link  508 at Sat Apr 17 20:34:09 2021, MaxMem=   104857600 cpu:               2.2 elap:               0.1
 (Enter /s/ls4/users/knvvv/bin/g16sse/l601.exe)
 Copying SCF densities to generalized density rwf, IOpCl= 0 IROHF=0.

 **********************************************************************

            Population analysis using the SCF density.

 **********************************************************************

 Orbital symmetries:
       Occupied  (A1G) (A2U) (A1G) (A2U) (EU) (EU) (A1G) (EG) (EG)
       Virtual   (A1G) (A2U) (EU) (EU) (A1G) (EG) (EG) (EG) (EG)
                 (EU) (EU) (A2U) (A1G) (A2U) (EU) (EU) (A2U) (A1U)
                 (A1G) (EG) (EG) (EU) (EU) (EG) (EG) (A2G) (A1G)
                 (EG) (EG) (A2U) (EU) (EU) (A1G) (EG) (EG) (A2U)
                 (EU) (EU) (EU) (EU) (A2U) (EG) (EG) (EU) (EU)
                 (A1G) (A2U) (EU) (EU) (A2U) (A1G) (EG) (EG) (A1U)
                 (EU) (EU) (EG) (EG) (A1G) (EG) (EG) (A2G) (EU)
                 (EU) (A2U) (A1G) (A2U) (EG) (EG) (A2U) (EU) (EU)
                 (EU) (EU) (EG) (EG) (A1G) (A1G) (A2U) (EG) (EG)
                 (A1G) (EU) (EU) (EG) (EG) (EU) (EU) (A2U) (A1U)
                 (A1G) (EG) (EG) (EU) (EU) (EG) (EG) (A2G) (EU)
                 (EU) (A2U) (EU) (EU) (EG) (EG) (A1G) (A1U) (A2U)
                 (EU) (EU) (EG) (EG) (A2G) (A2U) (A1G) (EU) (EU)
                 (A2U) (EG) (EG) (EG) (EG) (EU) (EU) (A2U) (A1G)
                 (EG) (EG) (EU) (EU) (A1U) (A1G) (EG) (EG) (A2G)
                 (A1G) (A2U) (EU) (EU) (A1U) (EG) (EG) (A1G) (EU)
                 (EU) (EG) (EG) (A1G) (A2U) (EU) (EU) (A2U) (A1G)
                 (EG) (EG) (EU) (EU) (A2G) (A1G) (EG) (EG) (EU)
                 (EU) (A2U) (EG) (EG) (EU) (EU) (A2U) (EG) (EG)
                 (EU) (EU) (A1U) (EG) (EG) (EU) (EU) (A2G) (A1G)
                 (EU) (EU) (A2U) (EG) (EG) (A2G) (EU) (EU) (A1U)
                 (EG) (EG) (A2U) (A1G) (A1U) (EG) (EG) (A2U) (EU)
                 (EU) (EG) (EG) (A2G) (A1G) (A2U) (A1G) (EU) (EU)
                 (EG) (EG) (EU) (EU) (A1G) (EU) (EU) (A1U) (EG)
                 (EG) (EU) (EU) (A1G) (A2U) (A2U) (EG) (EG) (A2G)
                 (A1G) (EU) (EU) (EG) (EG) (A1G) (EU) (EU) (A1U)
                 (EG) (EG) (A2U) (EG) (EG) (A2U) (EG) (EG) (A1G)
                 (EU) (EU) (A2G) (EU) (EU) (EG) (EG) (A2U) (EU)
                 (EU) (A1G) (A1U) (A2U) (EU) (EU) (EG) (EG) (A2G)
                 (EU) (EU) (EG) (EG) (A1G) (A2U) (A1G) (EU) (EU)
                 (EG) (EG) (A2U) (EG) (EG) (A1U) (EG) (EG) (EU)
                 (EU) (A1G) (EU) (EU) (A2G) (A2U) (A2U) (EG) (EG)
                 (EU) (EU) (EG) (EG) (EU) (EU) (A1G) (A2U) (EG)
                 (EG) (A1G) (A1U) (EU) (EU) (A2G) (EG) (EG) (EU)
                 (EU) (A2U) (A1G) (A1G) (A2U) (A1G) (A2U)
 The electronic state is 1-A1G.
 Alpha  occ. eigenvalues --  -10.52492 -10.52455  -0.84888  -0.70127  -0.50291
 Alpha  occ. eigenvalues --   -0.50291  -0.42815  -0.40362  -0.40362
 Alpha virt. eigenvalues --    0.01242   0.03150   0.07288   0.07288   0.10657
 Alpha virt. eigenvalues --    0.11132   0.11132   0.13688   0.13688   0.16653
 Alpha virt. eigenvalues --    0.16653   0.17218   0.19730   0.20598   0.20807
 Alpha virt. eigenvalues --    0.20807   0.22822   0.24110   0.28036   0.29446
 Alpha virt. eigenvalues --    0.29446   0.30166   0.30166   0.31156   0.31156
 Alpha virt. eigenvalues --    0.31443   0.32369   0.33168   0.33168   0.34423
 Alpha virt. eigenvalues --    0.36572   0.36572   0.37085   0.37718   0.37718
 Alpha virt. eigenvalues --    0.37870   0.40878   0.40878   0.41373   0.41373
 Alpha virt. eigenvalues --    0.46287   0.52894   0.52894   0.54354   0.54354
 Alpha virt. eigenvalues --    0.55707   0.59666   0.64523   0.64523   0.66109
 Alpha virt. eigenvalues --    0.66738   0.68603   0.68603   0.82158   0.85672
 Alpha virt. eigenvalues --    0.85672   0.85793   0.85793   0.85810   0.88635
 Alpha virt. eigenvalues --    0.88635   0.88738   0.90842   0.90842   0.93573
 Alpha virt. eigenvalues --    1.01278   1.02726   1.05470   1.05470   1.07492
 Alpha virt. eigenvalues --    1.10062   1.10062   1.20485   1.20485   1.21782
 Alpha virt. eigenvalues --    1.21782   1.22494   1.33228   1.35102   1.40096
 Alpha virt. eigenvalues --    1.40096   1.41972   1.44886   1.44886   1.48070
 Alpha virt. eigenvalues --    1.48070   1.53018   1.53018   1.59712   1.82362
 Alpha virt. eigenvalues --    1.88847   1.90877   1.90877   1.92266   1.92266
 Alpha virt. eigenvalues --    2.01144   2.01144   2.05394   2.10317   2.10317
 Alpha virt. eigenvalues --    2.13422   2.17385   2.17385   2.17589   2.17589
 Alpha virt. eigenvalues --    2.17659   2.17954   2.18887   2.23022   2.23022
 Alpha virt. eigenvalues --    2.23615   2.23615   2.23674   2.25558   2.38559
 Alpha virt. eigenvalues --    2.44863   2.44863   2.52391   2.57098   2.57098
 Alpha virt. eigenvalues --    2.64032   2.64032   2.67595   2.67595   2.72971
 Alpha virt. eigenvalues --    2.80798   2.82455   2.82455   2.84815   2.84815
 Alpha virt. eigenvalues --    2.85642   2.87074   2.93749   2.93749   2.98652
 Alpha virt. eigenvalues --    3.02009   3.02856   3.03952   3.03952   3.11824
 Alpha virt. eigenvalues --    3.12192   3.12192   3.16526   3.19163   3.19163
 Alpha virt. eigenvalues --    3.31083   3.31083   3.33373   3.36904   3.38655
 Alpha virt. eigenvalues --    3.38655   3.58899   3.59195   3.68937   3.68937
 Alpha virt. eigenvalues --    3.74559   3.74559   3.86175   3.88519   3.91793
 Alpha virt. eigenvalues --    3.91793   3.92365   3.92365   3.94093   4.16933
 Alpha virt. eigenvalues --    4.16933   4.29129   4.29129   4.64812   5.09167
 Alpha virt. eigenvalues --    5.09167   5.16653   5.16653   5.28909   5.42818
 Alpha virt. eigenvalues --    5.42818   5.49046   5.49046   5.49705   5.51677
 Alpha virt. eigenvalues --    5.68956   5.68956   5.73571   5.77395   5.77395
 Alpha virt. eigenvalues --    5.79419   5.81220   5.81220   5.82428   5.84979
 Alpha virt. eigenvalues --    5.84979   5.92542   5.94646   6.02515   6.02978
 Alpha virt. eigenvalues --    6.02978   6.03693   6.11209   6.11209   6.16195
 Alpha virt. eigenvalues --    6.16195   6.19016   6.19544   6.30124   6.33144
 Alpha virt. eigenvalues --    6.34026   6.34026   6.38622   6.38622   6.47705
 Alpha virt. eigenvalues --    6.47705   6.58113   6.59819   6.59819   6.64158
 Alpha virt. eigenvalues --    6.67426   6.67426   6.74709   6.74709   6.86934
 Alpha virt. eigenvalues --    6.90425   6.97603   7.04261   7.04261   7.13236
 Alpha virt. eigenvalues --    7.20013   7.28337   7.28337   7.30275   7.30275
 Alpha virt. eigenvalues --    7.32370   7.35644   7.35644   7.36991   7.45445
 Alpha virt. eigenvalues --    7.45445   7.47359   7.49289   7.49289   7.57173
 Alpha virt. eigenvalues --    7.58899   7.58899   7.59709   7.60216   7.60216
 Alpha virt. eigenvalues --    7.71401   7.72005   7.72005   7.79930   7.79930
 Alpha virt. eigenvalues --    7.91345   7.92819   7.92819   7.98101   8.13715
 Alpha virt. eigenvalues --    8.14698   8.15544   8.15544   8.20376   8.20376
 Alpha virt. eigenvalues --    8.25530   8.27172   8.27172   8.27401   8.27401
 Alpha virt. eigenvalues --    8.30738   8.38637   8.42357   8.42777   8.42777
 Alpha virt. eigenvalues --    8.45421   8.45421   8.56316   8.59640   8.59640
 Alpha virt. eigenvalues --    8.65052   8.79641   8.79641   8.86401   8.86401
 Alpha virt. eigenvalues --    8.88853   8.93980   8.93980   8.95720   9.22879
 Alpha virt. eigenvalues --    9.53807   9.57487   9.57487   9.59601   9.59601
 Alpha virt. eigenvalues --    9.70390   9.70390   9.70480   9.70480   9.71816
 Alpha virt. eigenvalues --    9.98650  10.05887  10.05887  10.06174  10.09905
 Alpha virt. eigenvalues --   10.21878  10.21878  10.46982  11.74655  11.74655
 Alpha virt. eigenvalues --   11.87534  11.87534  13.12430  13.14099  29.13657
 Alpha virt. eigenvalues --   29.18569 146.63942 146.68268
          Condensed to atoms (all electrons):
               1          2          3          4          5          6
     1  C    5.698386  -0.120373   0.471790   0.471790   0.471790  -0.229769
     2  C   -0.120373   5.698386  -0.229769  -0.229769  -0.229769   0.471790
     3  H    0.471790  -0.229769   0.684233   0.044345   0.044345  -0.053392
     4  H    0.471790  -0.229769   0.044345   0.684233   0.044345  -0.031454
     5  H    0.471790  -0.229769   0.044345   0.044345   0.684233  -0.031454
     6  H   -0.229769   0.471790  -0.053392  -0.031454  -0.031454   0.684233
     7  H   -0.229769   0.471790  -0.031454  -0.031454  -0.053392   0.044345
     8  H   -0.229769   0.471790  -0.031454  -0.053392  -0.031454   0.044345
               7          8
     1  C   -0.229769  -0.229769
     2  C    0.471790   0.471790
     3  H   -0.031454  -0.031454
     4  H   -0.031454  -0.053392
     5  H   -0.053392  -0.031454
     6  H    0.044345   0.044345
     7  H    0.684233   0.044345
     8  H    0.044345   0.684233
 Mulliken charges:
               1
     1  C   -0.304074
     2  C   -0.304074
     3  H    0.101358
     4  H    0.101358
     5  H    0.101358
     6  H    0.101358
     7  H    0.101358
     8  H    0.101358
 Sum of Mulliken charges =   0.00000
 Mulliken charges with hydrogens summed into heavy atoms:
               1
     1  C    0.000000
     2  C    0.000000
 Electronic spatial extent (au):  <R**2>=            109.7932
 Charge=              0.0000 electrons
 Dipole moment (field-independent basis, Debye):
    X=              0.0000    Y=              0.0000    Z=              0.0000  Tot=              0.0000
 Quadrupole moment (field-independent basis, Debye-Ang):
   XX=            -14.9415   YY=            -14.9415   ZZ=            -15.6265
   XY=             -0.0000   XZ=              0.0000   YZ=              0.0000
 Traceless Quadrupole moment (field-independent basis, Debye-Ang):
   XX=              0.2283   YY=              0.2283   ZZ=             -0.4567
   XY=             -0.0000   XZ=              0.0000   YZ=              0.0000
 Octapole moment (field-independent basis, Debye-Ang**2):
  XXX=              0.0000  YYY=              0.0000  ZZZ=             -0.0000  XYY=              0.0000
  XXY=             -0.0000  XXZ=              0.0000  XZZ=              0.0000  YZZ=              0.0000
  YYZ=              0.0000  XYZ=             -0.0000
 Hexadecapole moment (field-independent basis, Debye-Ang**3):
 XXXX=            -30.1870 YYYY=            -30.1870 ZZZZ=            -96.6584 XXXY=              0.0000
 XXXZ=              0.0000 YYYX=              0.0000 YYYZ=              1.5045 ZZZX=              0.0000
 ZZZY=              0.0000 XXYY=            -10.0623 XXZZ=            -19.9233 YYZZ=            -19.9233
 XXYZ=             -1.5045 YYXZ=              0.0000 ZZXY=              0.0000
 N-N= 4.226396426296D+01 E-N=-2.687127750355D+02  KE= 7.940055935236D+01
 PrsmSu:  requested number of processors reduced to:  21 ShMem   1 Linda.
 No NMR shielding tensors so no spin-rotation constants.
 Leave Link  601 at Sat Apr 17 20:34:20 2021, MaxMem=   104857600 cpu:             484.6 elap:              10.5
 (Enter /s/ls4/users/knvvv/bin/g16sse/l9999.exe)

 Test job not archived.
 1\1\GINC-N151\Stability\RM062X\Gen\C2H6\KNVVV\17-Apr-2021\0\\#P M062X/
 GEN Integral=UltraFineGrid SCF=NoSymm Stable=(RExt, Opt) IOp(1/33=1)\\
 Database calculations.\\0,1\C,0,0.,0.,0.76358\C,0,0.,0.,-0.76358\H,0,0
 .,1.016308,1.160205\H,0,-0.880148,-0.508154,1.160205\H,0,0.880148,-0.5
 08154,1.160205\H,0,0.,-1.016308,-1.160205\H,0,-0.880148,0.508154,-1.16
 0205\H,0,0.880148,0.508154,-1.160205\\Version=ES64L-G16RevA.03\State=1
 -A1G\HF=-79.8146796\RMSD=3.127e-09\Dipole=0.,0.,0.\Quadrupole=0.169764
 2,0.1697642,-0.3395284,0.,0.,0.\PG=D03D [C3(C1.C1),3SGD(H2)]\\@


 THE ENLIGHTENED ONE, BECAUSE HE SAW MANKIND DROWNING  
 IN THE GREAT SEA OF BIRTH, DEATH, AND SORROW, LONGED TO SAVE 
 THEM, FOR THIS HE WAS MOVED TO PITY.                         
 BECAUSE HE SAW MEN OF THE WORLD STRAYING IN FALSE PATHS, AND 
 NONE TO GUIDE THEM, FOR THIS HE WAS MOVED TO PITY.           
                     ..................                       
 BECAUSE HE SAW THE MEN OF THE WORLD PLOUGHING THEIR FIELDS,  
 SOWING THE SEED, TRAFFICKING, HUCKSTERING, BUYING, SELLING,  
 AND AT THE END WINNOWING NOTHING BUT BITTERNESS,             
 FOR THIS HE WAS MOVED TO PITY......                   
                   BUDAH'S PITY - UPSAKA SILA SUTRA           
 Job cpu time:       0 days 12 hours 47 minutes 41.6 seconds.
 Elapsed time:       0 days  0 hours 18 minutes  5.6 seconds.
 File lengths (MBytes):  RWF=    173 Int=      0 D2E=      0 Chk=     12 Scr=      1
 Normal termination of Gaussian 16 at Sat Apr 17 20:34:20 2021.
