 Entering Gaussian System, Link 0=/s/ls4/users/knvvv/bin/g16sse/g16
 Input=data/database/M062X--def2-QZVPPD--138_ch2ch_W4-11.gjf
 Output=data/database/M062X--def2-QZVPPD--138_ch2ch_W4-11.log
 Initial command:
 /s/ls4/users/knvvv/bin/g16sse/l1.exe "/s/ls4/users/knvvv/bin/scratch/Gau-7385.inp" -scrdir="/s/ls4/users/knvvv/bin/scratch/"
 Entering Link 1 = /s/ls4/users/knvvv/bin/g16sse/l1.exe PID=      7386.
  
 Copyright (c) 1988,1990,1992,1993,1995,1998,2003,2009,2016,
            Gaussian, Inc.  All Rights Reserved.
  
 This is part of the Gaussian(R) 16 program.  It is based on
 the Gaussian(R) 09 system (copyright 2009, Gaussian, Inc.),
 the Gaussian(R) 03 system (copyright 2003, Gaussian, Inc.),
 the Gaussian(R) 98 system (copyright 1998, Gaussian, Inc.),
 the Gaussian(R) 94 system (copyright 1995, Gaussian, Inc.),
 the Gaussian 92(TM) system (copyright 1992, Gaussian, Inc.),
 the Gaussian 90(TM) system (copyright 1990, Gaussian, Inc.),
 the Gaussian 88(TM) system (copyright 1988, Gaussian, Inc.),
 the Gaussian 86(TM) system (copyright 1986, Carnegie Mellon
 University), and the Gaussian 82(TM) system (copyright 1983,
 Carnegie Mellon University). Gaussian is a federally registered
 trademark of Gaussian, Inc.
  
 This software contains proprietary and confidential information,
 including trade secrets, belonging to Gaussian, Inc.
  
 This software is provided under written license and may be
 used, copied, transmitted, or stored only in accord with that
 written license.
  
 The following legend is applicable only to US Government
 contracts under FAR:
  
                    RESTRICTED RIGHTS LEGEND
  
 Use, reproduction and disclosure by the US Government is
 subject to restrictions as set forth in subparagraphs (a)
 and (c) of the Commercial Computer Software - Restricted
 Rights clause in FAR 52.227-19.
  
 Gaussian, Inc.
 340 Quinnipiac St., Bldg. 40, Wallingford CT 06492
  
  
 ---------------------------------------------------------------
 Warning -- This program may not be used in any manner that
 competes with the business of Gaussian, Inc. or will provide
 assistance to any competitor of Gaussian, Inc.  The licensee
 of this program is prohibited from giving any competitor of
 Gaussian, Inc. access to this program.  By using this program,
 the user acknowledges that Gaussian, Inc. is engaged in the
 business of creating and licensing software in the field of
 computational chemistry and represents and warrants to the
 licensee that it is not a competitor of Gaussian, Inc. and that
 it will not use this program in any manner prohibited above.
 ---------------------------------------------------------------
  

 Cite this work as:
 Gaussian 16, Revision A.03,
 M. J. Frisch, G. W. Trucks, H. B. Schlegel, G. E. Scuseria, 
 M. A. Robb, J. R. Cheeseman, G. Scalmani, V. Barone, 
 G. A. Petersson, H. Nakatsuji, X. Li, M. Caricato, A. V. Marenich, 
 J. Bloino, B. G. Janesko, R. Gomperts, B. Mennucci, H. P. Hratchian, 
 J. V. Ortiz, A. F. Izmaylov, J. L. Sonnenberg, D. Williams-Young, 
 F. Ding, F. Lipparini, F. Egidi, J. Goings, B. Peng, A. Petrone, 
 T. Henderson, D. Ranasinghe, V. G. Zakrzewski, J. Gao, N. Rega, 
 G. Zheng, W. Liang, M. Hada, M. Ehara, K. Toyota, R. Fukuda, 
 J. Hasegawa, M. Ishida, T. Nakajima, Y. Honda, O. Kitao, H. Nakai, 
 T. Vreven, K. Throssell, J. A. Montgomery, Jr., J. E. Peralta, 
 F. Ogliaro, M. J. Bearpark, J. J. Heyd, E. N. Brothers, K. N. Kudin, 
 V. N. Staroverov, T. A. Keith, R. Kobayashi, J. Normand, 
 K. Raghavachari, A. P. Rendell, J. C. Burant, S. S. Iyengar, 
 J. Tomasi, M. Cossi, J. M. Millam, M. Klene, C. Adamo, R. Cammi, 
 J. W. Ochterski, R. L. Martin, K. Morokuma, O. Farkas, 
 J. B. Foresman, and D. J. Fox, Gaussian, Inc., Wallingford CT, 2016.
 
 ******************************************
 Gaussian 16:  ES64L-G16RevA.03 25-Dec-2016
                17-Apr-2021 
 ******************************************
 %RWF=temp15_60181,70GB
 %nprocshared=48
 Will use up to   48 processors via shared memory.
 Default route: MaxDisk=80GB
 ----------------------------------------------------------------------
 #P M062X/GEN Integral=UltraFineGrid SCF=NoSymm Stable=(RExt, Opt) IOp(
 1/33=1)
 ----------------------------------------------------------------------
 1/33=1,38=1,172=1/1;
 2/12=2,17=6,18=5,40=1/2;
 3/5=7,11=2,25=1,30=1,74=-55,75=-5/1,2,3;
 4/9=2/1;
 5/5=2,38=5/2;
 6/7=2,8=2,9=2,10=2,28=1/1;
 8/6=1,10=90,11=11/1;
 9/8=-3,42=1,46=1/14;
 5/5=2,8=3,17=40,38=5/8(-2);
 6/7=2,8=2,9=2,10=2,28=1/1;
 99/5=1,9=1/99;
 Leave Link    1 at Sat Apr 17 06:23:08 2021, MaxMem=           0 cpu:               8.4 elap:               0.2
 (Enter /s/ls4/users/knvvv/bin/g16sse/l101.exe)
 ONIOM data not found on unit 2.
 ----------------------
 Database calculations.
 ----------------------
 TstMul:  ICh=     0
 TstMul:  Mul=     2
 TstMul:  ICh=     0
 TstMul:  Mul=     2
 Symbolic Z-matrix:
 Charge =  0 Multiplicity = 2
 C                     0.        0.        0. 
 H                     0.        0.        1.07859 
 C                     0.89548   0.       -0.96116 
 H                     0.61498   0.       -2.00856 
 H                     1.96264   0.       -0.7399 
 
 RdStrC is calling ZToCFu for IStruc=1 NZ=     5.
 PrtBox:  NBox=     1 Levels=  1 BoxLen=    8.00 SMaxX=        5.83
          Shift=            0.000000            0.000000            3.795622
 Box      1 Number                   0 centers from      1 to      5:
 After GenITR:
 ITRead=  0  0  0  0  0
 MicOpt= -1 -1 -1 -1 -1
 ITRead=  0  0  0  0  0
 MicOpt= -1 -1 -1 -1 -1
 NAtoms=      5 NQM=        5 NQMF=       0 NMMI=      0 NMMIF=      0
                NMic=       0 NMicF=      0.
                    Isotopes and Nuclear Properties:
 (Nuclear quadrupole moments (NQMom) in fm**2, nuclear magnetic moments (NMagM)
  in nuclear magnetons)

  Atom         1           2           3           4           5
 IAtWgt=          12           1          12           1           1
 AtmWgt=  12.0000000   1.0078250  12.0000000   1.0078250   1.0078250
 NucSpn=           0           1           0           1           1
 AtZEff=  -0.0000000  -0.0000000  -0.0000000  -0.0000000  -0.0000000
 NQMom=    0.0000000   0.0000000   0.0000000   0.0000000   0.0000000
 NMagM=    0.0000000   2.7928460   0.0000000   2.7928460   2.7928460
 AtZNuc=   6.0000000   1.0000000   6.0000000   1.0000000   1.0000000
 No MM parameters found.
 Leave Link  101 at Sat Apr 17 06:23:09 2021, MaxMem=   104857600 cpu:               8.9 elap:               0.2
 (Enter /s/ls4/users/knvvv/bin/g16sse/l202.exe)
                          Input orientation:                          
 ---------------------------------------------------------------------
 Center     Atomic      Atomic             Coordinates (Angstroms)
 Number     Number       Type             X           Y           Z
 ---------------------------------------------------------------------
      1          6           0        0.000000    0.000000    0.000000
      2          1           0        0.000000    0.000000    1.078590
      3          6           0        0.895478    0.000000   -0.961158
      4          1           0        0.614976    0.000000   -2.008557
      5          1           0        1.962642    0.000000   -0.739903
 ---------------------------------------------------------------------
                    Distance matrix (angstroms):
                    1          2          3          4          5
     1  C    0.000000
     2  H    1.078590   0.000000
     3  C    1.313661   2.227656   0.000000
     4  H    2.100594   3.147804   1.084309   0.000000
     5  H    2.097480   2.675609   1.089860   1.850861   0.000000
 Stoichiometry    C2H3(2)
 Framework group  CS[SG(C2H3)]
 Deg. of freedom     7
 Full point group                 CS      NOp   2
 Largest Abelian subgroup         CS      NOp   2
 Largest concise Abelian subgroup C1      NOp   1
                         Standard orientation:                         
 ---------------------------------------------------------------------
 Center     Atomic      Atomic             Coordinates (Angstroms)
 Number     Number       Type             X           Y           Z
 ---------------------------------------------------------------------
      1          6           0        0.049844    0.724055    0.000000
      2          1           0       -0.685394    1.513220    0.000000
      3          6           0        0.049844   -0.589606    0.000000
      4          1           0        0.969053   -1.164741    0.000000
      5          1           0       -0.881783   -1.155172    0.000000
 ---------------------------------------------------------------------
 Rotational constants (GHZ):         233.9524197          32.5029111          28.5381218
 Leave Link  202 at Sat Apr 17 06:23:09 2021, MaxMem=   104857600 cpu:               6.9 elap:               0.2
 (Enter /s/ls4/users/knvvv/bin/g16sse/l301.exe)
 General basis read from cards:  (5D, 7F)
 Centers:       2      4      5
 S 4 1.00
     Exponent=  1.9069169000D+02 Coefficients=  7.0815167000D-04
     Exponent=  2.8605532000D+01 Coefficients=  5.4678827000D-03
     Exponent=  6.5095943000D+00 Coefficients=  2.7966605000D-02
     Exponent=  1.8412455000D+00 Coefficients=  1.0764538000D-01
 S 1 1.00
     Exponent=  5.9853725000D-01 Coefficients=  1.0000000000D+00
 S 1 1.00
     Exponent=  2.1397624000D-01 Coefficients=  1.0000000000D+00
 S 1 1.00
     Exponent=  8.0316286000D-02 Coefficients=  1.0000000000D+00
 P 1 1.00
     Exponent=  2.2920000000D+00 Coefficients=  1.0000000000D+00
 P 1 1.00
     Exponent=  8.3800000000D-01 Coefficients=  1.0000000000D+00
 P 1 1.00
     Exponent=  2.9200000000D-01 Coefficients=  1.0000000000D+00
 P 1 1.00
     Exponent=  8.4063199228D-02 Coefficients=  1.0000000000D+00
 D 1 1.00
     Exponent=  2.0620000000D+00 Coefficients=  1.0000000000D+00
 D 1 1.00
     Exponent=  6.6200000000D-01 Coefficients=  1.0000000000D+00
 F 1 1.00
     Exponent=  1.3970000000D+00 Coefficients=  1.0000000000D+00
 ****
 Centers:       1      3
 S 8 1.00
     Exponent=  6.7025071029D+04 Coefficients=  3.8736308501D-05
     Exponent=  1.0039986538D+04 Coefficients=  3.0107917575D-04
     Exponent=  2.2849316911D+03 Coefficients=  1.5787918095D-03
     Exponent=  6.4714122130D+02 Coefficients=  6.6087087195D-03
     Exponent=  2.1109472335D+02 Coefficients=  2.3367123250D-02
     Exponent=  7.6177643862D+01 Coefficients=  7.0420716898D-02
     Exponent=  2.9633839163D+01 Coefficients=  1.7360344953D-01
     Exponent=  1.2187785081D+01 Coefficients=  3.2292305648D-01
 S 2 1.00
     Exponent=  5.3026006299D+01 Coefficients=  7.4897404492D-02
     Exponent=  1.5258502776D+01 Coefficients=  7.6136220983D-01
 S 1 1.00
     Exponent=  5.2403957464D+00 Coefficients=  1.0000000000D+00
 S 1 1.00
     Exponent=  2.2905022379D+00 Coefficients=  1.0000000000D+00
 S 1 1.00
     Exponent=  6.9673283006D-01 Coefficients=  1.0000000000D+00
 S 1 1.00
     Exponent=  2.7599337363D-01 Coefficients=  1.0000000000D+00
 S 1 1.00
     Exponent=  1.0739884389D-01 Coefficients=  1.0000000000D+00
 S 1 1.00
     Exponent=  4.4981404899D-02 Coefficients=  1.0000000000D+00
 P 5 1.00
     Exponent=  1.0512555082D+02 Coefficients=  8.4647553844D-04
     Exponent=  2.4884461066D+01 Coefficients=  6.6274038534D-03
     Exponent=  7.8637230826D+00 Coefficients=  3.0120390419D-02
     Exponent=  2.8407001835D+00 Coefficients=  9.9951435476D-02
     Exponent=  1.1227137335D+00 Coefficients=  2.3826299282D-01
 P 1 1.00
     Exponent=  4.6050725555D-01 Coefficients=  1.0000000000D+00
 P 1 1.00
     Exponent=  1.8937530913D-01 Coefficients=  1.0000000000D+00
 P 1 1.00
     Exponent=  7.5983791611D-02 Coefficients=  1.0000000000D+00
 D 1 1.00
     Exponent=  1.8480000000D+00 Coefficients=  1.0000000000D+00
 D 1 1.00
     Exponent=  6.4900000000D-01 Coefficients=  1.0000000000D+00
 D 1 1.00
     Exponent=  2.2800000000D-01 Coefficients=  1.0000000000D+00
 D 1 1.00
     Exponent=  7.6889830417D-02 Coefficients=  1.0000000000D+00
 F 1 1.00
     Exponent=  1.4190000000D+00 Coefficients=  1.0000000000D+00
 F 1 1.00
     Exponent=  4.8500000000D-01 Coefficients=  1.0000000000D+00
 G 1 1.00
     Exponent=  1.0110000000D+00 Coefficients=  1.0000000000D+00
 ****
 Ernie: Thresh=  0.10000D-02 Tol=  0.10000D-05 Strict=F.
 There are   184 symmetry adapted cartesian basis functions of A'  symmetry.
 There are    88 symmetry adapted cartesian basis functions of A"  symmetry.
 There are   148 symmetry adapted basis functions of A'  symmetry.
 There are    77 symmetry adapted basis functions of A"  symmetry.
   225 basis functions,   321 primitive gaussians,   272 cartesian basis functions
     8 alpha electrons        7 beta electrons
       nuclear repulsion energy        28.3892818742 Hartrees.
 IExCor= 4336 DFT=T Ex+Corr=M062X ExCW=0 ScaHFX=  0.540000
 ScaDFX=  1.000000  1.000000  1.000000  1.000000 ScalE2=  1.000000  1.000000
 IRadAn=      5 IRanWt=     -1 IRanGd=            0 ICorTp=0 IEmpDi=  4
 NAtoms=    5 NActive=    5 NUniq=    5 SFac= 1.00D+00 NAtFMM=   60 NAOKFM=F Big=F
 Integral buffers will be    131072 words long.
 Raffenetti 2 integral format.
 Two-electron integral symmetry is turned on.
 Leave Link  301 at Sat Apr 17 06:23:09 2021, MaxMem=   104857600 cpu:              10.4 elap:               0.3
 (Enter /s/ls4/users/knvvv/bin/g16sse/l302.exe)
 NPDir=0 NMtPBC=     1 NCelOv=     1 NCel=       1 NClECP=     1 NCelD=      1
         NCelK=      1 NCelE2=     1 NClLst=     1 CellRange=     0.0.
 One-electron integrals computed using PRISM.
 One-electron integral symmetry used in STVInt
 PrsmSu:  requested number of processors reduced to:   4 ShMem   1 Linda.
 PrsmSu:  requested number of processors reduced to:  21 ShMem   1 Linda.
 NBasis=   225 RedAO= T EigKep=  1.17D-06  NBF=   148    77
 NBsUse=   225 1.00D-06 EigRej= -1.00D+00 NBFU=   148    77
 Precomputing XC quadrature grid using
 IXCGrd= 4 IRadAn=           5 IRanWt=          -1 IRanGd=           0 AccXCQ= 0.00D+00.
 Generated NRdTot=       0 NPtTot=           0 NUsed=           0 NTot=          32
 NSgBfM=   272   272   272   272   272 MxSgAt=     5 MxSgA2=     5.
 Leave Link  302 at Sat Apr 17 06:23:15 2021, MaxMem=   104857600 cpu:             264.0 elap:               5.7
 (Enter /s/ls4/users/knvvv/bin/g16sse/l303.exe)
 DipDrv:  MaxL=1.
 Leave Link  303 at Sat Apr 17 06:23:16 2021, MaxMem=   104857600 cpu:              42.0 elap:               1.0
 (Enter /s/ls4/users/knvvv/bin/g16sse/l401.exe)
 SCF N**3 symmetry information disabled.
 ExpMin= 4.50D-02 ExpMax= 6.70D+04 ExpMxC= 6.47D+02 IAcc=3 IRadAn=         5 AccDes= 0.00D+00
 Harris functional with IExCor= 1009 and IRadAn=       5 diagonalized for initial guess.
 HarFok:  IExCor= 1009 AccDes= 0.00D+00 IRadAn=         5 IDoV= 1 UseB2=F ITyADJ=14
 ICtDFT=  3500011 ScaDFX=  1.000000  1.000000  1.000000  1.000000
 FoFCou: FMM=F IPFlag=           0 FMFlag=      100000 FMFlg1=           0
         NFxFlg=           0 DoJE=T BraDBF=F KetDBF=T FulRan=T
         wScrn=  0.000000 ICntrl=       500 IOpCl=  0 I1Cent=   200000004 NGrid=           0
         NMat0=    1 NMatS0=      1 NMatT0=    0 NMatD0=    1 NMtDS0=    0 NMtDT0=    0
 Petite list used in FoFCou.
 CoulSu:  requested number of processors reduced to:  21 ShMem   1 Linda.
 CoulSu:  requested number of processors reduced to:  21 ShMem   1 Linda.
 CoulSu:  requested number of processors reduced to:  21 ShMem   1 Linda.
 CoulSu:  requested number of processors reduced to:  21 ShMem   1 Linda.
 Harris En= -77.8624060063312    
 JPrj=0 DoOrth=F DoCkMO=F.
 Initial guess orbital symmetries:
 Alpha Orbitals:
       Occupied  (A') (A') (A') (A') (A') (A') (A") (A')
       Virtual   (A") (A') (A') (A') (A') (A') (A") (A') (A") (A')
                 (A") (A') (A') (A') (A') (A") (A') (A") (A') (A")
                 (A') (A') (A') (A') (A") (A') (A") (A') (A') (A")
                 (A') (A') (A') (A') (A") (A') (A") (A') (A') (A')
                 (A") (A') (A") (A") (A') (A') (A') (A') (A') (A')
                 (A") (A") (A') (A") (A') (A') (A") (A') (A') (A')
                 (A') (A') (A') (A') (A') (A") (A") (A") (A') (A')
                 (A') (A") (A') (A') (A") (A') (A") (A") (A') (A')
                 (A") (A") (A') (A') (A') (A') (A") (A') (A") (A')
                 (A") (A') (A") (A") (A") (A') (A') (A') (A') (A')
                 (A') (A") (A') (A") (A') (A') (A') (A') (A") (A')
                 (A") (A") (A') (A') (A') (A') (A") (A') (A') (A')
                 (A') (A") (A') (A") (A') (A') (A") (A') (A") (A")
                 (A') (A") (A") (A') (A") (A') (A") (A') (A') (A")
                 (A') (A') (A") (A') (A") (A') (A") (A') (A') (A')
                 (A") (A') (A") (A") (A') (A') (A') (A') (A") (A")
                 (A') (A') (A") (A") (A') (A') (A') (A") (A') (A')
                 (A") (A") (A') (A") (A') (A') (A") (A') (A') (A')
                 (A") (A') (A') (A") (A') (A') (A") (A') (A') (A')
                 (A') (A") (A") (A") (A') (A") (A") (A') (A') (A')
                 (A') (A') (A") (A") (A') (A") (A') (A') (A') (A')
                 (A') (A') (A') (A') (A') (A') (A')
 Beta  Orbitals:
       Occupied  (A') (A') (A') (A') (A') (A') (A")
       Virtual   (A') (A") (A') (A') (A') (A') (A') (A") (A') (A")
                 (A') (A") (A') (A') (A') (A') (A") (A') (A") (A')
                 (A") (A') (A') (A') (A') (A") (A') (A") (A') (A')
                 (A") (A') (A') (A') (A') (A") (A') (A") (A') (A')
                 (A') (A") (A') (A") (A") (A') (A') (A') (A') (A')
                 (A') (A") (A") (A') (A") (A') (A') (A") (A') (A')
                 (A') (A') (A') (A') (A') (A') (A") (A") (A") (A')
                 (A') (A') (A") (A') (A') (A") (A') (A") (A") (A')
                 (A') (A") (A") (A') (A') (A') (A') (A") (A') (A")
                 (A') (A") (A') (A") (A") (A") (A') (A') (A') (A')
                 (A') (A') (A") (A') (A") (A') (A') (A') (A') (A")
                 (A') (A") (A") (A') (A') (A') (A') (A") (A') (A')
                 (A') (A') (A") (A') (A") (A') (A') (A") (A') (A")
                 (A") (A') (A") (A") (A') (A") (A') (A") (A') (A')
                 (A") (A') (A') (A") (A') (A") (A') (A") (A') (A')
                 (A') (A") (A') (A") (A") (A') (A') (A') (A') (A")
                 (A") (A') (A') (A") (A") (A') (A') (A') (A") (A')
                 (A') (A") (A") (A') (A") (A') (A') (A") (A') (A')
                 (A') (A") (A') (A') (A") (A') (A') (A") (A') (A')
                 (A') (A') (A") (A") (A") (A') (A") (A") (A') (A')
                 (A') (A') (A') (A") (A") (A') (A") (A') (A') (A')
                 (A') (A') (A') (A') (A') (A') (A') (A')
 The electronic state of the initial guess is 2-A'.
 Initial guess <Sx>= 0.0000 <Sy>= 0.0000 <Sz>= 0.5000 <S**2>= 0.7500 S= 0.5000
 Leave Link  401 at Sat Apr 17 06:23:19 2021, MaxMem=   104857600 cpu:             150.7 elap:               3.5
 (Enter /s/ls4/users/knvvv/bin/g16sse/l502.exe)
 Integral symmetry usage will be decided dynamically.
 UHF open shell SCF:
 Using DIIS extrapolation, IDIIS=  1040.
 NGot=   104857600 LenX=   104693763 LenY=   104619338
 Requested convergence on RMS density matrix=1.00D-08 within 128 cycles.
 Requested convergence on MAX density matrix=1.00D-06.
 Requested convergence on             energy=1.00D-06.
 No special actions if energy rises.
 Fock matrices will be formed incrementally for  20 cycles.

 Cycle   1  Pass 1  IDiag  1:
 FoFJK:  IHMeth= 1 ICntrl=       0 DoSepK=F KAlg= 0 I1Cent=           0 FoldK=F
 IRaf= 990000000 NMat=       1 IRICut=       1 DoRegI=T DoRafI=F ISym2E= 1 IDoP0=0 IntGTp=1.
 FoFCou: FMM=F IPFlag=           0 FMFlag=      100000 FMFlg1=           0
         NFxFlg=           0 DoJE=F BraDBF=F KetDBF=F FulRan=T
         wScrn=  0.000000 ICntrl=         0 IOpCl=  1 I1Cent=           0 NGrid=           0
         NMat0=    1 NMatS0=      1 NMatT0=    0 NMatD0=    1 NMtDS0=    0 NMtDT0=    0
 Petite list used in FoFCou.
 CoulSu:  requested number of processors reduced to:  20 ShMem   1 Linda.
 E= -77.8133854525560    
 DIIS: error= 2.86D-02 at cycle   1 NSaved=   1.
 NSaved= 1 IEnMin= 1 EnMin= -77.8133854525560     IErMin= 1 ErrMin= 2.86D-02
 ErrMax= 2.86D-02  0.00D+00 EMaxC= 1.00D-01 BMatC= 4.50D-01 BMatP= 4.50D-01
 IDIUse=3 WtCom= 7.14D-01 WtEn= 2.86D-01
 Coeff-Com:  0.100D+01
 Coeff-En:   0.100D+01
 Coeff:      0.100D+01
 Gap=     0.365 Goal=   None    Shift=    0.000
 Gap=     0.269 Goal=   None    Shift=    0.000
 GapD=    0.269 DampG=1.000 DampE=0.500 DampFc=0.5000 IDamp=-1.
 Damping current iteration by 5.00D-01
 RMSDP=1.42D-02 MaxDP=1.62D+00              OVMax= 1.76D-01

 Cycle   2  Pass 1  IDiag  1:
 RMSU=  6.84D-03    CP:  1.29D+00
 CoulSu:  requested number of processors reduced to:  20 ShMem   1 Linda.
 E= -77.8558481411149     Delta-E=       -0.042462688559 Rises=F Damp=T
 DIIS: error= 1.02D-02 at cycle   2 NSaved=   2.
 NSaved= 2 IEnMin= 2 EnMin= -77.8558481411149     IErMin= 2 ErrMin= 1.02D-02
 ErrMax= 1.02D-02  0.00D+00 EMaxC= 1.00D-01 BMatC= 4.82D-02 BMatP= 4.50D-01
 IDIUse=3 WtCom= 8.98D-01 WtEn= 1.02D-01
 Coeff-Com: -0.214D+00 0.121D+01
 Coeff-En:   0.000D+00 0.100D+01
 Coeff:     -0.192D+00 0.119D+01
 Gap=     0.311 Goal=   None    Shift=    0.000
 Gap=     0.297 Goal=   None    Shift=    0.000
 RMSDP=5.89D-03 MaxDP=6.66D-01 DE=-4.25D-02 OVMax= 1.03D-01

 Cycle   3  Pass 1  IDiag  1:
 RMSU=  3.89D-03    CP:  9.53D-01  4.35D-01
 CoulSu:  requested number of processors reduced to:  20 ShMem   1 Linda.
 E= -77.8940263090152     Delta-E=       -0.038178167900 Rises=F Damp=F
 DIIS: error= 5.86D-03 at cycle   3 NSaved=   3.
 NSaved= 3 IEnMin= 3 EnMin= -77.8940263090152     IErMin= 3 ErrMin= 5.86D-03
 ErrMax= 5.86D-03  0.00D+00 EMaxC= 1.00D-01 BMatC= 7.36D-03 BMatP= 4.82D-02
 IDIUse=3 WtCom= 9.41D-01 WtEn= 5.86D-02
 Coeff-Com: -0.120D+00 0.325D+00 0.795D+00
 Coeff-En:   0.000D+00 0.000D+00 0.100D+01
 Coeff:     -0.113D+00 0.306D+00 0.807D+00
 Gap=     0.323 Goal=   None    Shift=    0.000
 Gap=     0.286 Goal=   None    Shift=    0.000
 RMSDP=1.24D-03 MaxDP=9.79D-02 DE=-3.82D-02 OVMax= 4.26D-02

 Cycle   4  Pass 1  IDiag  1:
 RMSU=  6.31D-04    CP:  8.93D-01  3.62D-01  1.22D+00
 CoulSu:  requested number of processors reduced to:  20 ShMem   1 Linda.
 E= -77.8954635060150     Delta-E=       -0.001437197000 Rises=F Damp=F
 DIIS: error= 3.79D-03 at cycle   4 NSaved=   4.
 NSaved= 4 IEnMin= 4 EnMin= -77.8954635060150     IErMin= 4 ErrMin= 3.79D-03
 ErrMax= 3.79D-03  0.00D+00 EMaxC= 1.00D-01 BMatC= 2.82D-03 BMatP= 7.36D-03
 IDIUse=3 WtCom= 9.62D-01 WtEn= 3.79D-02
 Coeff-Com: -0.425D-01 0.809D-01 0.434D+00 0.528D+00
 Coeff-En:   0.000D+00 0.000D+00 0.175D+00 0.825D+00
 Coeff:     -0.409D-01 0.778D-01 0.424D+00 0.539D+00
 Gap=     0.315 Goal=   None    Shift=    0.000
 Gap=     0.290 Goal=   None    Shift=    0.000
 RMSDP=5.89D-04 MaxDP=5.30D-02 DE=-1.44D-03 OVMax= 1.74D-02

 Cycle   5  Pass 1  IDiag  1:
 RMSU=  1.92D-04    CP:  9.14D-01  4.08D-01  1.12D+00  6.56D-01
 CoulSu:  requested number of processors reduced to:  20 ShMem   1 Linda.
 E= -77.8962432105806     Delta-E=       -0.000779704566 Rises=F Damp=F
 DIIS: error= 9.59D-04 at cycle   5 NSaved=   5.
 NSaved= 5 IEnMin= 5 EnMin= -77.8962432105806     IErMin= 5 ErrMin= 9.59D-04
 ErrMax= 9.59D-04  0.00D+00 EMaxC= 1.00D-01 BMatC= 1.02D-04 BMatP= 2.82D-03
 IDIUse=3 WtCom= 9.90D-01 WtEn= 9.59D-03
 Coeff-Com:  0.320D-01-0.708D-01-0.251D+00-0.165D+00 0.145D+01
 Coeff-En:   0.000D+00 0.000D+00 0.000D+00 0.000D+00 0.100D+01
 Coeff:      0.317D-01-0.701D-01-0.249D+00-0.163D+00 0.145D+01
 Gap=     0.317 Goal=   None    Shift=    0.000
 Gap=     0.292 Goal=   None    Shift=    0.000
 RMSDP=1.87D-04 MaxDP=1.57D-02 DE=-7.80D-04 OVMax= 1.18D-02

 Cycle   6  Pass 1  IDiag  1:
 RMSU=  6.39D-05    CP:  9.05D-01  3.95D-01  1.11D+00  6.55D-01  1.66D+00
 CoulSu:  requested number of processors reduced to:  20 ShMem   1 Linda.
 E= -77.8963781697063     Delta-E=       -0.000134959126 Rises=F Damp=F
 DIIS: error= 4.19D-04 at cycle   6 NSaved=   6.
 NSaved= 6 IEnMin= 6 EnMin= -77.8963781697063     IErMin= 6 ErrMin= 4.19D-04
 ErrMax= 4.19D-04  0.00D+00 EMaxC= 1.00D-01 BMatC= 1.37D-05 BMatP= 1.02D-04
 IDIUse=3 WtCom= 9.96D-01 WtEn= 4.19D-03
 Coeff-Com: -0.180D-02 0.379D-02-0.739D-02-0.330D-01-0.265D+00 0.130D+01
 Coeff-En:   0.000D+00 0.000D+00 0.000D+00 0.000D+00 0.000D+00 0.100D+01
 Coeff:     -0.179D-02 0.377D-02-0.736D-02-0.328D-01-0.264D+00 0.130D+01
 Gap=     0.317 Goal=   None    Shift=    0.000
 Gap=     0.292 Goal=   None    Shift=    0.000
 RMSDP=1.24D-04 MaxDP=1.32D-02 DE=-1.35D-04 OVMax= 5.86D-03

 Cycle   7  Pass 1  IDiag  1:
 RMSU=  4.44D-05    CP:  9.06D-01  3.98D-01  1.09D+00  5.73D-01  1.92D+00
                    CP:  1.45D+00
 CoulSu:  requested number of processors reduced to:  20 ShMem   1 Linda.
 E= -77.8964041412198     Delta-E=       -0.000025971514 Rises=F Damp=F
 DIIS: error= 2.08D-04 at cycle   7 NSaved=   7.
 NSaved= 7 IEnMin= 7 EnMin= -77.8964041412198     IErMin= 7 ErrMin= 2.08D-04
 ErrMax= 2.08D-04  0.00D+00 EMaxC= 1.00D-01 BMatC= 2.80D-06 BMatP= 1.37D-05
 IDIUse=3 WtCom= 9.98D-01 WtEn= 2.08D-03
 Coeff-Com: -0.422D-02 0.950D-02 0.347D-01 0.238D-01-0.154D+00-0.317D+00
 Coeff-Com:  0.141D+01
 Coeff-En:   0.000D+00 0.000D+00 0.000D+00 0.000D+00 0.000D+00 0.000D+00
 Coeff-En:   0.100D+01
 Coeff:     -0.421D-02 0.948D-02 0.346D-01 0.238D-01-0.153D+00-0.317D+00
 Coeff:      0.141D+01
 Gap=     0.317 Goal=   None    Shift=    0.000
 Gap=     0.292 Goal=   None    Shift=    0.000
 RMSDP=8.39D-05 MaxDP=7.08D-03 DE=-2.60D-05 OVMax= 3.26D-03

 Cycle   8  Pass 1  IDiag  1:
 RMSU=  1.01D-05    CP:  9.08D-01  4.03D-01  1.07D+00  5.23D-01  2.04D+00
                    CP:  1.64D+00  1.56D+00
 CoulSu:  requested number of processors reduced to:  20 ShMem   1 Linda.
 E= -77.8964099561322     Delta-E=       -0.000005814912 Rises=F Damp=F
 DIIS: error= 6.52D-05 at cycle   8 NSaved=   8.
 NSaved= 8 IEnMin= 8 EnMin= -77.8964099561322     IErMin= 8 ErrMin= 6.52D-05
 ErrMax= 6.52D-05  0.00D+00 EMaxC= 1.00D-01 BMatC= 4.35D-07 BMatP= 2.80D-06
 IDIUse=1 WtCom= 1.00D+00 WtEn= 0.00D+00
 Coeff-Com:  0.155D-02-0.310D-02-0.731D-02-0.130D-02 0.855D-01-0.214D+00
 Coeff-Com: -0.152D+00 0.129D+01
 Coeff:      0.155D-02-0.310D-02-0.731D-02-0.130D-02 0.855D-01-0.214D+00
 Coeff:     -0.152D+00 0.129D+01
 Gap=     0.317 Goal=   None    Shift=    0.000
 Gap=     0.292 Goal=   None    Shift=    0.000
 RMSDP=2.63D-05 MaxDP=2.65D-03 DE=-5.81D-06 OVMax= 1.32D-03

 Cycle   9  Pass 1  IDiag  1:
 RMSU=  5.20D-06    CP:  9.08D-01  4.04D-01  1.07D+00  5.06D-01  2.08D+00
                    CP:  1.71D+00  1.73D+00  1.60D+00
 CoulSu:  requested number of processors reduced to:  20 ShMem   1 Linda.
 E= -77.8964106851473     Delta-E=       -0.000000729015 Rises=F Damp=F
 DIIS: error= 1.36D-05 at cycle   9 NSaved=   9.
 NSaved= 9 IEnMin= 9 EnMin= -77.8964106851473     IErMin= 9 ErrMin= 1.36D-05
 ErrMax= 1.36D-05  0.00D+00 EMaxC= 1.00D-01 BMatC= 3.35D-08 BMatP= 4.35D-07
 IDIUse=1 WtCom= 1.00D+00 WtEn= 0.00D+00
 Coeff-Com:  0.459D-03-0.106D-02-0.352D-02-0.135D-02 0.186D-01 0.185D-01
 Coeff-Com: -0.148D+00 0.173D-01 0.110D+01
 Coeff:      0.459D-03-0.106D-02-0.352D-02-0.135D-02 0.186D-01 0.185D-01
 Coeff:     -0.148D+00 0.173D-01 0.110D+01
 Gap=     0.317 Goal=   None    Shift=    0.000
 Gap=     0.292 Goal=   None    Shift=    0.000
 RMSDP=3.54D-06 MaxDP=2.89D-04 DE=-7.29D-07 OVMax= 2.81D-04

 Cycle  10  Pass 1  IDiag  1:
 RMSU=  1.74D-06    CP:  9.08D-01  4.04D-01  1.07D+00  5.08D-01  2.08D+00
                    CP:  1.73D+00  1.74D+00  1.69D+00  1.08D+00
 CoulSu:  requested number of processors reduced to:  20 ShMem   1 Linda.
 E= -77.8964107237966     Delta-E=       -0.000000038649 Rises=F Damp=F
 DIIS: error= 2.05D-06 at cycle  10 NSaved=  10.
 NSaved=10 IEnMin=10 EnMin= -77.8964107237966     IErMin=10 ErrMin= 2.05D-06
 ErrMax= 2.05D-06  0.00D+00 EMaxC= 1.00D-01 BMatC= 2.41D-09 BMatP= 3.35D-08
 IDIUse=1 WtCom= 1.00D+00 WtEn= 0.00D+00
 Coeff-Com: -0.166D-03 0.329D-03 0.784D-03 0.486D-03-0.646D-02 0.104D-01
 Coeff-Com:  0.263D-01-0.986D-01-0.898D-01 0.116D+01
 Coeff:     -0.166D-03 0.329D-03 0.784D-03 0.486D-03-0.646D-02 0.104D-01
 Coeff:      0.263D-01-0.986D-01-0.898D-01 0.116D+01
 Gap=     0.317 Goal=   None    Shift=    0.000
 Gap=     0.292 Goal=   None    Shift=    0.000
 RMSDP=2.30D-06 MaxDP=2.55D-04 DE=-3.86D-08 OVMax= 2.34D-05

 Cycle  11  Pass 1  IDiag  1:
 RMSU=  3.63D-07    CP:  9.08D-01  4.03D-01  1.07D+00  5.08D-01  2.08D+00
                    CP:  1.73D+00  1.74D+00  1.69D+00  1.14D+00  1.20D+00
 CoulSu:  requested number of processors reduced to:  20 ShMem   1 Linda.
 E= -77.8964107250966     Delta-E=       -0.000000001300 Rises=F Damp=F
 DIIS: error= 6.13D-07 at cycle  11 NSaved=  11.
 NSaved=11 IEnMin=11 EnMin= -77.8964107250966     IErMin=11 ErrMin= 6.13D-07
 ErrMax= 6.13D-07  0.00D+00 EMaxC= 1.00D-01 BMatC= 8.47D-11 BMatP= 2.41D-09
 IDIUse=1 WtCom= 1.00D+00 WtEn= 0.00D+00
 Coeff-Com: -0.118D-04 0.311D-04 0.506D-04-0.942D-04-0.815D-03 0.599D-03
 Coeff-Com:  0.592D-02-0.231D-02-0.492D-01 0.282D-01 0.102D+01
 Coeff:     -0.118D-04 0.311D-04 0.506D-04-0.942D-04-0.815D-03 0.599D-03
 Coeff:      0.592D-02-0.231D-02-0.492D-01 0.282D-01 0.102D+01
 Gap=     0.317 Goal=   None    Shift=    0.000
 Gap=     0.292 Goal=   None    Shift=    0.000
 RMSDP=2.32D-07 MaxDP=2.27D-05 DE=-1.30D-09 OVMax= 5.08D-06

 Cycle  12  Pass 1  IDiag  1:
 RMSU=  6.60D-08    CP:  9.08D-01  4.03D-01  1.07D+00  5.09D-01  2.08D+00
                    CP:  1.73D+00  1.74D+00  1.69D+00  1.14D+00  1.21D+00
                    CP:  1.15D+00
 CoulSu:  requested number of processors reduced to:  20 ShMem   1 Linda.
 E= -77.8964107251413     Delta-E=       -0.000000000045 Rises=F Damp=F
 DIIS: error= 1.43D-07 at cycle  12 NSaved=  12.
 NSaved=12 IEnMin=12 EnMin= -77.8964107251413     IErMin=12 ErrMin= 1.43D-07
 ErrMax= 1.43D-07  0.00D+00 EMaxC= 1.00D-01 BMatC= 6.23D-12 BMatP= 8.47D-11
 IDIUse=1 WtCom= 1.00D+00 WtEn= 0.00D+00
 Coeff-Com:  0.595D-05-0.123D-04-0.164D-04-0.543D-05 0.284D-03-0.376D-03
 Coeff-Com: -0.193D-02 0.443D-02 0.117D-01-0.513D-01-0.236D+00 0.127D+01
 Coeff:      0.595D-05-0.123D-04-0.164D-04-0.543D-05 0.284D-03-0.376D-03
 Coeff:     -0.193D-02 0.443D-02 0.117D-01-0.513D-01-0.236D+00 0.127D+01
 Gap=     0.317 Goal=   None    Shift=    0.000
 Gap=     0.292 Goal=   None    Shift=    0.000
 RMSDP=1.04D-07 MaxDP=1.06D-05 DE=-4.47D-11 OVMax= 1.79D-06

 Cycle  13  Pass 1  IDiag  1:
 RMSU=  1.73D-08    CP:  9.08D-01  4.03D-01  1.07D+00  5.09D-01  2.08D+00
                    CP:  1.73D+00  1.74D+00  1.69D+00  1.14D+00  1.20D+00
                    CP:  1.16D+00  1.44D+00
 CoulSu:  requested number of processors reduced to:  20 ShMem   1 Linda.
 E= -77.8964107251453     Delta-E=       -0.000000000004 Rises=F Damp=F
 DIIS: error= 3.32D-08 at cycle  13 NSaved=  13.
 NSaved=13 IEnMin=13 EnMin= -77.8964107251453     IErMin=13 ErrMin= 3.32D-08
 ErrMax= 3.32D-08  0.00D+00 EMaxC= 1.00D-01 BMatC= 2.58D-13 BMatP= 6.23D-12
 IDIUse=1 WtCom= 1.00D+00 WtEn= 0.00D+00
 Coeff-Com: -0.122D-06-0.238D-06 0.121D-05 0.574D-05 0.217D-04-0.534D-04
 Coeff-Com: -0.210D-04-0.219D-03-0.777D-05 0.555D-02-0.143D-01-0.168D+00
 Coeff-Com:  0.118D+01
 Coeff:     -0.122D-06-0.238D-06 0.121D-05 0.574D-05 0.217D-04-0.534D-04
 Coeff:     -0.210D-04-0.219D-03-0.777D-05 0.555D-02-0.143D-01-0.168D+00
 Coeff:      0.118D+01
 Gap=     0.317 Goal=   None    Shift=    0.000
 Gap=     0.292 Goal=   None    Shift=    0.000
 RMSDP=4.02D-08 MaxDP=3.43D-06 DE=-4.05D-12 OVMax= 3.49D-07

 Cycle  14  Pass 1  IDiag  1:
 RMSU=  5.23D-09    CP:  9.08D-01  4.03D-01  1.07D+00  5.09D-01  2.08D+00
                    CP:  1.73D+00  1.74D+00  1.69D+00  1.14D+00  1.20D+00
                    CP:  1.16D+00  1.48D+00  1.27D+00
 CoulSu:  requested number of processors reduced to:  20 ShMem   1 Linda.
 E= -77.8964107251456     Delta-E=       -0.000000000000 Rises=F Damp=F
 DIIS: error= 7.35D-09 at cycle  14 NSaved=  14.
 NSaved=14 IEnMin=14 EnMin= -77.8964107251456     IErMin=14 ErrMin= 7.35D-09
 ErrMax= 7.35D-09  0.00D+00 EMaxC= 1.00D-01 BMatC= 1.39D-14 BMatP= 2.58D-13
 IDIUse=1 WtCom= 1.00D+00 WtEn= 0.00D+00
 Coeff-Com: -0.267D-06 0.574D-06 0.171D-06-0.695D-06-0.163D-04 0.253D-04
 Coeff-Com:  0.921D-04-0.182D-03-0.681D-03 0.221D-02 0.127D-01-0.516D-01
 Coeff-Com: -0.981D-01 0.114D+01
 Coeff:     -0.267D-06 0.574D-06 0.171D-06-0.695D-06-0.163D-04 0.253D-04
 Coeff:      0.921D-04-0.182D-03-0.681D-03 0.221D-02 0.127D-01-0.516D-01
 Coeff:     -0.981D-01 0.114D+01
 Gap=     0.317 Goal=   None    Shift=    0.000
 Gap=     0.292 Goal=   None    Shift=    0.000
 RMSDP=4.79D-09 MaxDP=3.02D-07 DE=-2.98D-13 OVMax= 8.38D-08

 SCF Done:  E(UM062X) =  -77.8964107251     A.U. after   14 cycles
            NFock= 14  Conv=0.48D-08     -V/T= 2.0047
 <Sx>= 0.0000 <Sy>= 0.0000 <Sz>= 0.5000 <S**2>= 0.7669 S= 0.5084
 <L.S>= 0.000000000000E+00
 KE= 7.752900309653D+01 PE=-2.371345072042D+02 EE= 5.331981150827D+01
 Annihilation of the first spin contaminant:
 S**2 before annihilation     0.7669,   after     0.7501
 Leave Link  502 at Sat Apr 17 06:24:03 2021, MaxMem=   104857600 cpu:            1600.3 elap:              44.0
 (Enter /s/ls4/users/knvvv/bin/g16sse/l601.exe)
 Copying SCF densities to generalized density rwf, IOpCl= 1 IROHF=0.

 **********************************************************************

            Population analysis using the SCF density.

 **********************************************************************

 Orbital symmetries:
 Alpha Orbitals:
       Occupied  (A') (A') (A') (A') (A') (A') (A") (A')
       Virtual   (A') (A") (A') (A') (A') (A') (A") (A') (A") (A')
                 (A') (A") (A') (A') (A') (A") (A') (A") (A") (A')
                 (A') (A') (A") (A') (A') (A') (A") (A") (A') (A')
                 (A') (A') (A') (A') (A') (A") (A') (A") (A') (A')
                 (A") (A') (A") (A') (A") (A') (A') (A') (A') (A")
                 (A') (A") (A') (A") (A') (A') (A") (A') (A') (A')
                 (A') (A') (A') (A') (A') (A") (A") (A") (A') (A')
                 (A') (A") (A') (A') (A") (A') (A") (A") (A') (A")
                 (A') (A") (A') (A') (A') (A') (A") (A') (A") (A')
                 (A") (A') (A") (A") (A') (A') (A') (A") (A') (A')
                 (A") (A') (A') (A") (A') (A') (A') (A') (A") (A')
                 (A") (A") (A') (A') (A') (A') (A") (A') (A') (A')
                 (A') (A") (A') (A") (A') (A') (A") (A") (A') (A")
                 (A') (A") (A") (A') (A") (A') (A") (A') (A') (A")
                 (A') (A") (A') (A") (A') (A") (A') (A') (A") (A')
                 (A') (A") (A') (A") (A') (A') (A') (A') (A") (A')
                 (A") (A") (A') (A") (A') (A') (A') (A") (A') (A')
                 (A") (A") (A") (A') (A') (A") (A') (A') (A') (A")
                 (A') (A') (A") (A') (A') (A") (A') (A') (A') (A')
                 (A") (A") (A') (A") (A') (A") (A") (A') (A') (A')
                 (A') (A") (A') (A") (A') (A") (A') (A') (A') (A')
                 (A') (A') (A') (A') (A') (A') (A')
 Beta  Orbitals:
       Occupied  (A') (A') (A') (A') (A') (A') (A")
       Virtual   (A') (A') (A') (A") (A') (A') (A') (A") (A') (A")
                 (A') (A') (A') (A") (A') (A") (A') (A') (A") (A")
                 (A') (A') (A') (A") (A') (A') (A') (A") (A") (A')
                 (A') (A') (A') (A') (A') (A') (A") (A') (A") (A')
                 (A') (A") (A') (A") (A') (A') (A") (A') (A') (A')
                 (A") (A') (A") (A') (A") (A') (A') (A") (A') (A')
                 (A') (A') (A') (A') (A') (A') (A") (A") (A") (A')
                 (A') (A') (A") (A') (A') (A") (A') (A") (A") (A')
                 (A") (A') (A") (A') (A') (A') (A') (A") (A') (A')
                 (A") (A") (A') (A") (A") (A') (A') (A') (A") (A')
                 (A') (A") (A') (A') (A") (A') (A') (A') (A') (A")
                 (A') (A") (A") (A') (A') (A') (A') (A") (A') (A')
                 (A') (A") (A') (A') (A") (A') (A') (A") (A") (A')
                 (A") (A') (A") (A") (A') (A") (A') (A") (A') (A')
                 (A") (A') (A") (A') (A") (A') (A") (A') (A') (A')
                 (A") (A') (A') (A") (A") (A') (A') (A') (A') (A")
                 (A') (A") (A") (A') (A") (A') (A') (A") (A') (A')
                 (A') (A") (A") (A") (A') (A') (A') (A") (A') (A')
                 (A") (A') (A') (A") (A') (A') (A") (A') (A') (A')
                 (A') (A") (A") (A') (A") (A') (A") (A") (A') (A')
                 (A') (A') (A") (A') (A") (A') (A") (A') (A') (A')
                 (A') (A') (A') (A') (A') (A') (A') (A')
 The electronic state is 2-A'.
 Alpha  occ. eigenvalues --  -10.57122 -10.54906  -0.86775  -0.66107  -0.53561
 Alpha  occ. eigenvalues --   -0.50012  -0.35272  -0.30024
 Alpha virt. eigenvalues --    0.01724   0.02841   0.03154   0.08297   0.11849
 Alpha virt. eigenvalues --    0.13020   0.14206   0.14218   0.16345   0.17782
 Alpha virt. eigenvalues --    0.20651   0.20717   0.21459   0.22425   0.22570
 Alpha virt. eigenvalues --    0.23652   0.26190   0.26741   0.27192   0.29091
 Alpha virt. eigenvalues --    0.31182   0.31506   0.33190   0.33344   0.35096
 Alpha virt. eigenvalues --    0.36723   0.36872   0.37866   0.39585   0.41394
 Alpha virt. eigenvalues --    0.44646   0.46534   0.48974   0.52051   0.55756
 Alpha virt. eigenvalues --    0.57337   0.58624   0.63463   0.65893   0.67941
 Alpha virt. eigenvalues --    0.71225   0.74797   0.79888   0.79894   0.84083
 Alpha virt. eigenvalues --    0.84892   0.87351   0.92104   0.94077   0.94327
 Alpha virt. eigenvalues --    0.95894   0.97064   1.01003   1.04722   1.07021
 Alpha virt. eigenvalues --    1.11866   1.16399   1.19285   1.23628   1.29800
 Alpha virt. eigenvalues --    1.32112   1.34782   1.40023   1.53624   1.62391
 Alpha virt. eigenvalues --    1.67945   1.77013   1.80813   1.81611   1.85438
 Alpha virt. eigenvalues --    1.85975   1.92982   1.96194   1.98170   1.98906
 Alpha virt. eigenvalues --    1.99757   2.02558   2.06263   2.09374   2.11146
 Alpha virt. eigenvalues --    2.11689   2.16375   2.19211   2.24333   2.31938
 Alpha virt. eigenvalues --    2.35567   2.40331   2.43363   2.48678   2.50133
 Alpha virt. eigenvalues --    2.54627   2.55680   2.56434   2.63498   2.63943
 Alpha virt. eigenvalues --    2.68273   2.69737   2.70113   2.72868   2.80688
 Alpha virt. eigenvalues --    2.82155   2.84931   2.94079   3.02872   3.13259
 Alpha virt. eigenvalues --    3.27399   3.34053   3.36880   3.42158   3.46071
 Alpha virt. eigenvalues --    3.47851   3.56715   3.71873   3.72501   3.80550
 Alpha virt. eigenvalues --    3.88337   3.90286   4.00466   4.21664   4.34705
 Alpha virt. eigenvalues --    4.69294   4.69756   4.78733   4.79244   4.84105
 Alpha virt. eigenvalues --    4.94811   4.94906   5.22191   5.22662   5.32151
 Alpha virt. eigenvalues --    5.37753   5.38272   5.45585   5.47870   5.52933
 Alpha virt. eigenvalues --    5.58197   5.62142   5.65563   5.71452   5.74036
 Alpha virt. eigenvalues --    5.77432   5.79280   5.79953   5.85721   5.88358
 Alpha virt. eigenvalues --    5.90969   5.93808   5.98413   6.02577   6.02886
 Alpha virt. eigenvalues --    6.04004   6.10548   6.10812   6.16793   6.34167
 Alpha virt. eigenvalues --    6.37346   6.41574   6.44979   6.54670   6.67660
 Alpha virt. eigenvalues --    6.69584   6.77612   6.78706   6.85568   6.88115
 Alpha virt. eigenvalues --    7.01156   7.09044   7.10069   7.16178   7.21654
 Alpha virt. eigenvalues --    7.30423   7.35904   7.40982   7.41629   7.46794
 Alpha virt. eigenvalues --    7.47865   7.49002   7.60074   7.63747   7.71097
 Alpha virt. eigenvalues --    7.72948   7.80900   7.88530   7.92277   7.98887
 Alpha virt. eigenvalues --    8.00115   8.03734   8.12177   8.15234   8.20444
 Alpha virt. eigenvalues --    8.24757   8.28302   8.29704   8.46796   8.50997
 Alpha virt. eigenvalues --    8.58592   8.82935   8.84484   8.96242   9.34716
 Alpha virt. eigenvalues --    9.46513   9.52035   9.52297   9.64041   9.79269
 Alpha virt. eigenvalues --    9.98774  10.08784  10.44696  10.60406  10.74322
 Alpha virt. eigenvalues --   11.51939  12.42687  12.82493  28.21815  29.17540
 Alpha virt. eigenvalues --  145.68325 146.67626
  Beta  occ. eigenvalues --  -10.56137 -10.55004  -0.84626  -0.63489  -0.51627
  Beta  occ. eigenvalues --   -0.48336  -0.33613
  Beta virt. eigenvalues --   -0.04416   0.02018   0.03773   0.03974   0.07725
  Beta virt. eigenvalues --    0.11311   0.12326   0.13798   0.14830   0.15193
  Beta virt. eigenvalues --    0.17984   0.18100   0.20259   0.20822   0.21402
  Beta virt. eigenvalues --    0.22408   0.22880   0.25428   0.26381   0.26915
  Beta virt. eigenvalues --    0.29141   0.30209   0.31233   0.32328   0.32747
  Beta virt. eigenvalues --    0.34514   0.35923   0.35979   0.37206   0.38974
  Beta virt. eigenvalues --    0.41018   0.44593   0.46693   0.48643   0.52692
  Beta virt. eigenvalues --    0.54821   0.57763   0.58766   0.63564   0.66679
  Beta virt. eigenvalues --    0.67882   0.71395   0.73515   0.79567   0.80075
  Beta virt. eigenvalues --    0.83304   0.84722   0.86481   0.91275   0.92314
  Beta virt. eigenvalues --    0.94252   0.95238   0.96524   1.01099   1.04449
  Beta virt. eigenvalues --    1.04972   1.10818   1.15218   1.17198   1.21252
  Beta virt. eigenvalues --    1.29693   1.31875   1.33021   1.37789   1.52123
  Beta virt. eigenvalues --    1.59996   1.67547   1.77102   1.81146   1.82207
  Beta virt. eigenvalues --    1.84860   1.86250   1.92440   1.96132   1.96708
  Beta virt. eigenvalues --    1.99593   2.00635   2.01897   2.06284   2.08944
  Beta virt. eigenvalues --    2.10633   2.11509   2.15999   2.19183   2.22885
  Beta virt. eigenvalues --    2.29576   2.35061   2.39658   2.42468   2.48001
  Beta virt. eigenvalues --    2.48334   2.53904   2.55023   2.55912   2.62640
  Beta virt. eigenvalues --    2.63437   2.67833   2.69660   2.70117   2.71641
  Beta virt. eigenvalues --    2.80018   2.81664   2.83871   2.92736   3.02145
  Beta virt. eigenvalues --    3.11923   3.26748   3.33162   3.36656   3.40676
  Beta virt. eigenvalues --    3.46032   3.46477   3.56298   3.71218   3.73183
  Beta virt. eigenvalues --    3.81038   3.87296   3.89342   3.99271   4.21758
  Beta virt. eigenvalues --    4.34666   4.72267   4.72378   4.80275   4.80785
  Beta virt. eigenvalues --    4.86290   4.94029   4.94882   5.22423   5.23251
  Beta virt. eigenvalues --    5.33276   5.38095   5.38516   5.45224   5.50251
  Beta virt. eigenvalues --    5.55111   5.61200   5.67389   5.69216   5.76657
  Beta virt. eigenvalues --    5.77846   5.78432   5.82578   5.85636   5.86441
  Beta virt. eigenvalues --    5.92724   5.92727   5.96455   6.00988   6.05854
  Beta virt. eigenvalues --    6.06312   6.07870   6.13724   6.17410   6.18716
  Beta virt. eigenvalues --    6.32810   6.40760   6.44695   6.48151   6.56238
  Beta virt. eigenvalues --    6.67800   6.68702   6.78555   6.80556   6.88593
  Beta virt. eigenvalues --    6.90877   7.03580   7.10011   7.11423   7.19633
  Beta virt. eigenvalues --    7.23566   7.30801   7.37107   7.40628   7.42259
  Beta virt. eigenvalues --    7.47631   7.48537   7.49036   7.60615   7.65014
  Beta virt. eigenvalues --    7.71849   7.74155   7.81925   7.91219   7.94214
  Beta virt. eigenvalues --    7.99553   8.00071   8.06016   8.11701   8.16295
  Beta virt. eigenvalues --    8.21205   8.25424   8.32019   8.33515   8.46917
  Beta virt. eigenvalues --    8.58315   8.61253   8.85206   8.87832   8.96371
  Beta virt. eigenvalues --    9.36911   9.50764   9.52516   9.53720   9.61804
  Beta virt. eigenvalues --    9.91386  10.05891  10.15332  10.48718  10.61303
  Beta virt. eigenvalues --   10.81638  11.51145  12.55347  12.79442  28.28592
  Beta virt. eigenvalues --   29.21653 145.69337 146.68202
          Condensed to atoms (all electrons):
               1          2          3          4          5
     1  C    5.762810   0.172643   0.623009  -0.230779  -0.056625
     2  H    0.172643   0.966032  -0.196780  -0.152559  -0.172422
     3  C    0.623009  -0.196780   5.668794   0.259256   0.224939
     4  H   -0.230779  -0.152559   0.259256   0.799369   0.138615
     5  H   -0.056625  -0.172422   0.224939   0.138615   0.584399
          Atomic-Atomic Spin Densities.
               1          2          3          4          5
     1  C    1.102095   0.301410  -0.182169  -0.012439  -0.125419
     2  H    0.301410  -0.149110   0.017275   0.049323  -0.004970
     3  C   -0.182169   0.017275  -0.361187   0.062761   0.124026
     4  H   -0.012439   0.049323   0.062761  -0.163519  -0.025775
     5  H   -0.125419  -0.004970   0.124026  -0.025775   0.163675
 Mulliken charges and spin densities:
               1          2
     1  C   -0.271059   1.083477
     2  H    0.383085   0.213928
     3  C   -0.579219  -0.339293
     4  H    0.186099  -0.089650
     5  H    0.281094   0.131538
 Sum of Mulliken charges =  -0.00000   1.00000
 Mulliken charges and spin densities with hydrogens summed into heavy atoms:
               1          2
     1  C    0.112026   1.297405
     3  C   -0.112026  -0.297405
 Electronic spatial extent (au):  <R**2>=             73.2578
 Charge=             -0.0000 electrons
 Dipole moment (field-independent basis, Debye):
    X=             -0.5882    Y=             -0.2851    Z=              0.0000  Tot=              0.6536
 Quadrupole moment (field-independent basis, Debye-Ang):
   XX=            -12.4607   YY=            -11.4192   ZZ=            -14.9582
   XY=             -1.1818   XZ=              0.0000   YZ=              0.0000
 Traceless Quadrupole moment (field-independent basis, Debye-Ang):
   XX=              0.4854   YY=              1.5268   ZZ=             -2.0122
   XY=             -1.1818   XZ=              0.0000   YZ=              0.0000
 Octapole moment (field-independent basis, Debye-Ang**2):
  XXX=             -0.9948  YYY=             -0.1490  ZZZ=              0.0000  XYY=             -1.9290
  XXY=             -1.4788  XXZ=              0.0000  XZZ=             -0.2845  YZZ=             -0.2653
  YYZ=              0.0000  XYZ=              0.0000
 Hexadecapole moment (field-independent basis, Debye-Ang**3):
 XXXX=            -23.7136 YYYY=            -61.8011 ZZZZ=            -18.7072 XXXY=              0.7050
 XXXZ=              0.0000 YYYX=             -1.5451 YYYZ=              0.0000 ZZZX=              0.0000
 ZZZY=              0.0000 XXYY=            -12.7947 XXZZ=             -7.5573 YYZZ=            -14.5937
 XXYZ=              0.0000 YYXZ=              0.0000 ZZXY=              0.5625
 N-N= 2.838928187423D+01 E-N=-2.371345071861D+02  KE= 7.752900309653D+01
                          Isotropic Fermi Contact Couplings
        Atom                 a.u.       MegaHertz       Gauss      10(-4) cm-1
     1  C(13)              0.40589     456.29616     162.81782     152.20402
     2  H(1)               0.01070      47.83083      17.06723      15.95465
     3  C(13)             -0.01749     -19.65887      -7.01477      -6.55749
     4  H(1)               0.02441     109.13160      38.94087      36.40238
     5  H(1)               0.03664     163.75636      58.43234      54.62324
 PrsmSu:  requested number of processors reduced to:  21 ShMem   1 Linda.
 --------------------------------------------------------
       Center         ----  Spin Dipole Couplings  ----
                      3XX-RR        3YY-RR        3ZZ-RR
 --------------------------------------------------------
     1   Atom        0.743820     -0.366510     -0.377311
     2   Atom        0.022042      0.039499     -0.061541
     3   Atom        0.035902      0.138230     -0.174133
     4   Atom       -0.010784      0.023477     -0.012693
     5   Atom       -0.001969      0.012893     -0.010924
 --------------------------------------------------------
                        XY            XZ            YZ
 --------------------------------------------------------
     1   Atom        0.565761      0.000000      0.000000
     2   Atom       -0.049668      0.000000      0.000000
     3   Atom        0.015265      0.000000      0.000000
     4   Atom       -0.006228      0.000000      0.000000
     5   Atom        0.004229      0.000000      0.000000
 --------------------------------------------------------


 ---------------------------------------------------------------------------------
              Anisotropic Spin Dipole Couplings in Principal Axis System
 ---------------------------------------------------------------------------------

       Atom             a.u.   MegaHertz   Gauss  10(-4) cm-1        Axes

              Baa    -0.6040   -81.050   -28.921   -27.035 -0.3870  0.9221 -0.0000
     1 C(13)  Bbb    -0.3773   -50.631   -18.067   -16.889  0.0000  0.0000  1.0000
              Bcc     0.9813   131.682    46.987    43.924  0.9221  0.3870  0.0000
 
              Baa    -0.0615   -32.835   -11.716   -10.953  0.0000  0.0000  1.0000
     2 H(1)   Bbb    -0.0197   -10.489    -3.743    -3.499  0.7659  0.6430  0.0000
              Bcc     0.0812    43.324    15.459    14.451 -0.6430  0.7659  0.0000
 
              Baa    -0.1741   -23.367    -8.338    -7.794  0.0000  0.0000  1.0000
     3 C(13)  Bbb     0.0337     4.519     1.612     1.507  0.9895 -0.1445 -0.0000
              Bcc     0.1405    18.848     6.726     6.287  0.1445  0.9895  0.0000
 
              Baa    -0.0127    -6.772    -2.416    -2.259  0.0000  0.0000  1.0000
     4 H(1)   Bbb    -0.0119    -6.339    -2.262    -2.115  0.9848  0.1735  0.0000
              Bcc     0.0246    13.111     4.678     4.374 -0.1735  0.9848  0.0000
 
              Baa    -0.0109    -5.829    -2.080    -1.944  0.0000  0.0000  1.0000
     5 H(1)   Bbb    -0.0031    -1.647    -0.588    -0.550  0.9667 -0.2558 -0.0000
              Bcc     0.0140     7.476     2.668     2.494  0.2558  0.9667  0.0000
 

 ---------------------------------------------------------------------------------

 PrsmSu:  requested number of processors reduced to:  21 ShMem   1 Linda.
 No NMR shielding tensors so no spin-rotation constants.
 Leave Link  601 at Sat Apr 17 06:24:08 2021, MaxMem=   104857600 cpu:             185.2 elap:               4.2
 (Enter /s/ls4/users/knvvv/bin/g16sse/l801.exe)
 DoSCS=F DFT=T ScalE2(SS,OS)=  1.000000  1.000000
 Range of M.O.s used for correlation:     1   225
 NBasis=   225 NAE=     8 NBE=     7 NFC=     0 NFV=     0
 NROrb=    225 NOA=     8 NOB=     7 NVA=   217 NVB=   218

 **** Warning!!: The largest alpha MO coefficient is  0.26980026D+03


 **** Warning!!: The largest beta MO coefficient is  0.22692318D+03

 Leave Link  801 at Sat Apr 17 06:24:08 2021, MaxMem=   104857600 cpu:               4.6 elap:               0.1
 (Enter /s/ls4/users/knvvv/bin/g16sse/l914.exe)
 UHF ground state
 Doing stability rather than CIS.
 Two-electron integrals replicated using symmetry.
 MDV=   104857600 DFT=T DoStab=T Mixed=T DoRPA=F DoScal=F NonHer=F
 Making orbital integer symmetry assigments:
 Orbital symmetries:
 Alpha Orbitals:
       Occupied  (A') (A') (A') (A') (A') (A') (A") (A')
       Virtual   (A') (A") (A') (A') (A') (A') (A") (A') (A") (A')
                 (A') (A") (A') (A') (A') (A") (A') (A") (A") (A')
                 (A') (A') (A") (A') (A') (A') (A") (A") (A') (A')
                 (A') (A') (A') (A') (A') (A") (A') (A") (A') (A')
                 (A") (A') (A") (A') (A") (A') (A') (A') (A') (A")
                 (A') (A") (A') (A") (A') (A') (A") (A') (A') (A')
                 (A') (A') (A') (A') (A') (A") (A") (A") (A') (A')
                 (A') (A") (A') (A') (A") (A') (A") (A") (A') (A")
                 (A') (A") (A') (A') (A') (A') (A") (A') (A") (A')
                 (A") (A') (A") (A") (A') (A') (A') (A") (A') (A')
                 (A") (A') (A') (A") (A') (A') (A') (A') (A") (A')
                 (A") (A") (A') (A') (A') (A') (A") (A') (A') (A')
                 (A') (A") (A') (A") (A') (A') (A") (A") (A') (A")
                 (A') (A") (A") (A') (A") (A') (A") (A') (A') (A")
                 (A') (A") (A') (A") (A') (A") (A') (A') (A") (A')
                 (A') (A") (A') (A") (A') (A') (A') (A') (A") (A')
                 (A") (A") (A') (A") (A') (A') (A') (A") (A') (A')
                 (A") (A") (A") (A') (A') (A") (A') (A') (A') (A")
                 (A') (A') (A") (A') (A') (A") (A') (A') (A') (A')
                 (A") (A") (A') (A") (A') (A") (A") (A') (A') (A')
                 (A') (A") (A') (A") (A') (A") (A') (A') (A') (A')
                 (A') (A') (A') (A') (A') (A') (A')
 Beta  Orbitals:
       Occupied  (A') (A') (A') (A') (A') (A') (A")
       Virtual   (A') (A') (A') (A") (A') (A') (A') (A") (A') (A")
                 (A') (A') (A') (A") (A') (A") (A') (A') (A") (A")
                 (A') (A') (A') (A") (A') (A') (A') (A") (A") (A')
                 (A') (A') (A') (A') (A') (A') (A") (A') (A") (A')
                 (A') (A") (A') (A") (A') (A') (A") (A') (A') (A')
                 (A") (A') (A") (A') (A") (A') (A') (A") (A') (A')
                 (A') (A') (A') (A') (A') (A') (A") (A") (A") (A')
                 (A') (A') (A") (A') (A') (A") (A') (A") (A") (A')
                 (A") (A') (A") (A') (A') (A') (A') (A") (A') (A')
                 (A") (A") (A') (A") (A") (A') (A') (A') (A") (A')
                 (A') (A") (A') (A') (A") (A') (A') (A') (A') (A")
                 (A') (A") (A") (A') (A') (A') (A') (A") (A') (A')
                 (A') (A") (A') (A') (A") (A') (A') (A") (A") (A')
                 (A") (A') (A") (A") (A') (A") (A') (A") (A') (A')
                 (A") (A') (A") (A') (A") (A') (A") (A') (A') (A')
                 (A") (A') (A') (A") (A") (A') (A') (A') (A') (A")
                 (A') (A") (A") (A') (A") (A') (A') (A") (A') (A')
                 (A') (A") (A") (A") (A') (A') (A') (A") (A') (A')
                 (A") (A') (A') (A") (A') (A') (A") (A') (A') (A')
                 (A') (A") (A") (A') (A") (A') (A") (A") (A') (A')
                 (A') (A') (A") (A') (A") (A') (A") (A') (A') (A')
                 (A') (A') (A') (A') (A') (A') (A') (A')
    12 initial guesses have been made.
 Convergence on wavefunction:    0.001000000000000
 Davidson Disk Diagonalization:  ConvIn= 1.00D-03 SkipCon=T Conv= 1.00D-03.
 Max sub-space:  2000 roots to seek:    12 dimension of matrix:         3262
 Iteration     1 Dimension    12 NMult     0 NNew     12
 Estimated number of processors is:   19
 CISAX will form     1 AO SS matrices at one time.
 NMat=     1 NSing=     1 JSym2X= 2.
 FoFJK:  IHMeth= 1 ICntrl=       0 DoSepK=F KAlg= 0 I1Cent=           0 FoldK=F
 IRaf= 990000000 NMat=       1 IRICut=       1 DoRegI=T DoRafI=F ISym2E= 2 IDoP0=0 IntGTp=1.
 FoFCou: FMM=F IPFlag=           0 FMFlag=      100000 FMFlg1=           0
         NFxFlg=           0 DoJE=F BraDBF=F KetDBF=F FulRan=T
         wScrn=  0.000000 ICntrl=         0 IOpCl=  1 I1Cent=           0 NGrid=           0
         NMat0=    1 NMatS0=      1 NMatT0=    0 NMatD0=    1 NMtDS0=    0 NMtDT0=    0
 Integrals replicated using symmetry in FoFCou.
 CoulSu:  requested number of processors reduced to:  20 ShMem   1 Linda.
 NMat=     1 NSing=     1 JSym2X= 2.
 CoulSu:  requested number of processors reduced to:  20 ShMem   1 Linda.
 NMat=     1 NSing=     1 JSym2X= 2.
 CoulSu:  requested number of processors reduced to:  20 ShMem   1 Linda.
 NMat=     1 NSing=     1 JSym2X= 2.
 CoulSu:  requested number of processors reduced to:  20 ShMem   1 Linda.
 NMat=     1 NSing=     1 JSym2X= 2.
 CoulSu:  requested number of processors reduced to:  20 ShMem   1 Linda.
 NMat=     1 NSing=     1 JSym2X= 2.
 CoulSu:  requested number of processors reduced to:  20 ShMem   1 Linda.
 NMat=     1 NSing=     1 JSym2X= 2.
 CoulSu:  requested number of processors reduced to:  20 ShMem   1 Linda.
 NMat=     1 NSing=     1 JSym2X= 2.
 CoulSu:  requested number of processors reduced to:  20 ShMem   1 Linda.
 NMat=     1 NSing=     1 JSym2X= 2.
 CoulSu:  requested number of processors reduced to:  20 ShMem   1 Linda.
 NMat=     1 NSing=     1 JSym2X= 2.
 CoulSu:  requested number of processors reduced to:  20 ShMem   1 Linda.
 NMat=     1 NSing=     1 JSym2X= 2.
 CoulSu:  requested number of processors reduced to:  20 ShMem   1 Linda.
 NMat=     1 NSing=     1 JSym2X= 2.
 CoulSu:  requested number of processors reduced to:  20 ShMem   1 Linda.
 Excitation Energies [eV] at current iteration:
 Root      1 :     3.728535815960641
 Root      2 :     4.715448808008142
 Root      3 :     4.962653497020294
 Root      4 :     6.471008379477426
 Root      5 :     6.987649176730700
 Root      6 :     7.446907988223606
 Root      7 :     7.922053828254075
 Root      8 :     7.967618652851022
 Root      9 :     8.170162327979613
 Root     10 :     8.380907198562356
 Root     11 :     8.684781066713764
 Root     12 :    13.299890803152390
 Iteration     2 Dimension    24 NMult    12 NNew     12
 Estimated number of processors is:   19
 CISAX will form     1 AO SS matrices at one time.
 NMat=     1 NSing=     1 JSym2X= 2.
 CoulSu:  requested number of processors reduced to:  20 ShMem   1 Linda.
 NMat=     1 NSing=     1 JSym2X= 2.
 CoulSu:  requested number of processors reduced to:  20 ShMem   1 Linda.
 NMat=     1 NSing=     1 JSym2X= 2.
 CoulSu:  requested number of processors reduced to:  20 ShMem   1 Linda.
 NMat=     1 NSing=     1 JSym2X= 2.
 CoulSu:  requested number of processors reduced to:  20 ShMem   1 Linda.
 NMat=     1 NSing=     1 JSym2X= 2.
 CoulSu:  requested number of processors reduced to:  20 ShMem   1 Linda.
 NMat=     1 NSing=     1 JSym2X= 2.
 CoulSu:  requested number of processors reduced to:  20 ShMem   1 Linda.
 NMat=     1 NSing=     1 JSym2X= 2.
 CoulSu:  requested number of processors reduced to:  20 ShMem   1 Linda.
 NMat=     1 NSing=     1 JSym2X= 2.
 CoulSu:  requested number of processors reduced to:  20 ShMem   1 Linda.
 NMat=     1 NSing=     1 JSym2X= 2.
 CoulSu:  requested number of processors reduced to:  20 ShMem   1 Linda.
 NMat=     1 NSing=     1 JSym2X= 2.
 CoulSu:  requested number of processors reduced to:  20 ShMem   1 Linda.
 NMat=     1 NSing=     1 JSym2X= 2.
 CoulSu:  requested number of processors reduced to:  20 ShMem   1 Linda.
 NMat=     1 NSing=     1 JSym2X= 2.
 CoulSu:  requested number of processors reduced to:  20 ShMem   1 Linda.
 Root      1 not converged, maximum delta is    0.143075662515602
 Excitation Energies [eV] at current iteration:
 Root      1 :     3.096349590204964   Change is   -0.632186225755677
 Root      2 :     3.756473056727579   Change is   -0.958975751280562
 Root      3 :     4.673401631105867   Change is   -0.289251865914427
 Root      4 :     6.279214553592554   Change is   -0.191793825884872
 Root      5 :     6.820932130919585   Change is   -0.166717045811114
 Root      6 :     7.287631866461846   Change is   -0.159276121761760
 Root      7 :     7.775295853847583   Change is   -0.146757974406492
 Root      8 :     7.843496820428191   Change is   -0.124121832422831
 Root      9 :     7.892667579610228   Change is   -0.277494748369386
 Root     10 :     8.270759120583687   Change is   -0.110148077978669
 Root     11 :     8.531179727514017   Change is   -0.153601339199747
 Root     12 :    10.856587878553440   Change is   -2.443302924598953
 Iteration     3 Dimension    27 NMult    24 NNew      3
 Estimated number of processors is:   19
 CISAX will form     1 AO SS matrices at one time.
 NMat=     1 NSing=     1 JSym2X= 2.
 CoulSu:  requested number of processors reduced to:  20 ShMem   1 Linda.
 NMat=     1 NSing=     1 JSym2X= 2.
 CoulSu:  requested number of processors reduced to:  20 ShMem   1 Linda.
 NMat=     1 NSing=     1 JSym2X= 2.
 CoulSu:  requested number of processors reduced to:  20 ShMem   1 Linda.
 Root      1 not converged, maximum delta is    0.016270305388784
 Excitation Energies [eV] at current iteration:
 Root      1 :     3.071637121827788   Change is   -0.024712468377176
 Root      2 :     3.707086396125955   Change is   -0.049386660601625
 Root      3 :     4.647599658418819   Change is   -0.025801972687048
 Iteration     4 Dimension    30 NMult    27 NNew      3
 Estimated number of processors is:   19
 CISAX will form     1 AO SS matrices at one time.
 NMat=     1 NSing=     1 JSym2X= 2.
 CoulSu:  requested number of processors reduced to:  20 ShMem   1 Linda.
 NMat=     1 NSing=     1 JSym2X= 2.
 CoulSu:  requested number of processors reduced to:  20 ShMem   1 Linda.
 NMat=     1 NSing=     1 JSym2X= 2.
 CoulSu:  requested number of processors reduced to:  20 ShMem   1 Linda.
 Root      1 not converged, maximum delta is    0.003259324191033
 Excitation Energies [eV] at current iteration:
 Root      1 :     3.070807735094342   Change is   -0.000829386733446
 Root      2 :     3.701222009202825   Change is   -0.005864386923130
 Root      3 :     4.646129288469259   Change is   -0.001470369949560
 Iteration     5 Dimension    33 NMult    30 NNew      3
 Estimated number of processors is:   19
 CISAX will form     1 AO SS matrices at one time.
 NMat=     1 NSing=     1 JSym2X= 2.
 CoulSu:  requested number of processors reduced to:  20 ShMem   1 Linda.
 NMat=     1 NSing=     1 JSym2X= 2.
 CoulSu:  requested number of processors reduced to:  20 ShMem   1 Linda.
 NMat=     1 NSing=     1 JSym2X= 2.
 CoulSu:  requested number of processors reduced to:  20 ShMem   1 Linda.
 Root      1 has converged.
 Excitation Energies [eV] at current iteration:
 Root      1 :     3.070773480834853   Change is   -0.000034254259489
 Root      2 :     3.700573705222038   Change is   -0.000648303980786
 Root      3 :     4.646062341082331   Change is   -0.000066947386928
 Convergence achieved on expansion vectors.
 ***********************************************************************
 Stability analysis using <AA,BB:AA,BB> singles matrix:
 ***********************************************************************
 1PDM for each excited state written to RWF  633
 Ground to excited state transition densities written to RWF  633

 Eigenvectors of the stability matrix:
 
 Eigenvector   1:  2.019-A"   Eigenvalue= 0.1128488  <S**2>=0.769
      8A -> 10A        0.29431
      7B ->  8B        0.89682
      7B ->  9B       -0.12608
      7B -> 10B       -0.10111
      7B -> 12B       -0.12312
      7B -> 16B        0.15787
 The wavefunction is stable under the perturbations considered.
 Leave Link  914 at Sat Apr 17 06:26:50 2021, MaxMem=   104857600 cpu:            6446.0 elap:             162.2
 (Enter /s/ls4/users/knvvv/bin/g16sse/l508.exe)
 The wavefunction is already stable.
 Leave Link  508 at Sat Apr 17 06:26:50 2021, MaxMem=   104857600 cpu:               2.2 elap:               0.1
 (Enter /s/ls4/users/knvvv/bin/g16sse/l601.exe)
 Copying SCF densities to generalized density rwf, IOpCl= 1 IROHF=0.

 **********************************************************************

            Population analysis using the SCF density.

 **********************************************************************

 Orbital symmetries:
 Alpha Orbitals:
       Occupied  (A') (A') (A') (A') (A') (A') (A") (A')
       Virtual   (A') (A") (A') (A') (A') (A') (A") (A') (A") (A')
                 (A') (A") (A') (A') (A') (A") (A') (A") (A") (A')
                 (A') (A') (A") (A') (A') (A') (A") (A") (A') (A')
                 (A') (A') (A') (A') (A') (A") (A') (A") (A') (A')
                 (A") (A') (A") (A') (A") (A') (A') (A') (A') (A")
                 (A') (A") (A') (A") (A') (A') (A") (A') (A') (A')
                 (A') (A') (A') (A') (A') (A") (A") (A") (A') (A')
                 (A') (A") (A') (A') (A") (A') (A") (A") (A') (A")
                 (A') (A") (A') (A') (A') (A') (A") (A') (A") (A')
                 (A") (A') (A") (A") (A') (A') (A') (A") (A') (A')
                 (A") (A') (A') (A") (A') (A') (A') (A') (A") (A')
                 (A") (A") (A') (A') (A') (A') (A") (A') (A') (A')
                 (A') (A") (A') (A") (A') (A') (A") (A") (A') (A")
                 (A') (A") (A") (A') (A") (A') (A") (A') (A') (A")
                 (A') (A") (A') (A") (A') (A") (A') (A') (A") (A')
                 (A') (A") (A') (A") (A') (A') (A') (A') (A") (A')
                 (A") (A") (A') (A") (A') (A') (A') (A") (A') (A')
                 (A") (A") (A") (A') (A') (A") (A') (A') (A') (A")
                 (A') (A') (A") (A') (A') (A") (A') (A') (A') (A')
                 (A") (A") (A') (A") (A') (A") (A") (A') (A') (A')
                 (A') (A") (A') (A") (A') (A") (A') (A') (A') (A')
                 (A') (A') (A') (A') (A') (A') (A')
 Beta  Orbitals:
       Occupied  (A') (A') (A') (A') (A') (A') (A")
       Virtual   (A') (A') (A') (A") (A') (A') (A') (A") (A') (A")
                 (A') (A') (A') (A") (A') (A") (A') (A') (A") (A")
                 (A') (A') (A') (A") (A') (A') (A') (A") (A") (A')
                 (A') (A') (A') (A') (A') (A') (A") (A') (A") (A')
                 (A') (A") (A') (A") (A') (A') (A") (A') (A') (A')
                 (A") (A') (A") (A') (A") (A') (A') (A") (A') (A')
                 (A') (A') (A') (A') (A') (A') (A") (A") (A") (A')
                 (A') (A') (A") (A') (A') (A") (A') (A") (A") (A')
                 (A") (A') (A") (A') (A') (A') (A') (A") (A') (A')
                 (A") (A") (A') (A") (A") (A') (A') (A') (A") (A')
                 (A') (A") (A') (A') (A") (A') (A') (A') (A') (A")
                 (A') (A") (A") (A') (A') (A') (A') (A") (A') (A')
                 (A') (A") (A') (A') (A") (A') (A') (A") (A") (A')
                 (A") (A') (A") (A") (A') (A") (A') (A") (A') (A')
                 (A") (A') (A") (A') (A") (A') (A") (A') (A') (A')
                 (A") (A') (A') (A") (A") (A') (A') (A') (A') (A")
                 (A') (A") (A") (A') (A") (A') (A') (A") (A') (A')
                 (A') (A") (A") (A") (A') (A') (A') (A") (A') (A')
                 (A") (A') (A') (A") (A') (A') (A") (A') (A') (A')
                 (A') (A") (A") (A') (A") (A') (A") (A") (A') (A')
                 (A') (A') (A") (A') (A") (A') (A") (A') (A') (A')
                 (A') (A') (A') (A') (A') (A') (A') (A')
 The electronic state is 2-A'.
 Alpha  occ. eigenvalues --  -10.57122 -10.54906  -0.86775  -0.66107  -0.53561
 Alpha  occ. eigenvalues --   -0.50012  -0.35272  -0.30024
 Alpha virt. eigenvalues --    0.01724   0.02841   0.03154   0.08297   0.11849
 Alpha virt. eigenvalues --    0.13020   0.14206   0.14218   0.16345   0.17782
 Alpha virt. eigenvalues --    0.20651   0.20717   0.21459   0.22425   0.22570
 Alpha virt. eigenvalues --    0.23652   0.26190   0.26741   0.27192   0.29091
 Alpha virt. eigenvalues --    0.31182   0.31506   0.33190   0.33344   0.35096
 Alpha virt. eigenvalues --    0.36723   0.36872   0.37866   0.39585   0.41394
 Alpha virt. eigenvalues --    0.44646   0.46534   0.48974   0.52051   0.55756
 Alpha virt. eigenvalues --    0.57337   0.58624   0.63463   0.65893   0.67941
 Alpha virt. eigenvalues --    0.71225   0.74797   0.79888   0.79894   0.84083
 Alpha virt. eigenvalues --    0.84892   0.87351   0.92104   0.94077   0.94327
 Alpha virt. eigenvalues --    0.95894   0.97064   1.01003   1.04722   1.07021
 Alpha virt. eigenvalues --    1.11866   1.16399   1.19285   1.23628   1.29800
 Alpha virt. eigenvalues --    1.32112   1.34782   1.40023   1.53624   1.62391
 Alpha virt. eigenvalues --    1.67945   1.77013   1.80813   1.81611   1.85438
 Alpha virt. eigenvalues --    1.85975   1.92982   1.96194   1.98170   1.98906
 Alpha virt. eigenvalues --    1.99757   2.02558   2.06263   2.09374   2.11146
 Alpha virt. eigenvalues --    2.11689   2.16375   2.19211   2.24333   2.31938
 Alpha virt. eigenvalues --    2.35567   2.40331   2.43363   2.48678   2.50133
 Alpha virt. eigenvalues --    2.54627   2.55680   2.56434   2.63498   2.63943
 Alpha virt. eigenvalues --    2.68273   2.69737   2.70113   2.72868   2.80688
 Alpha virt. eigenvalues --    2.82155   2.84931   2.94079   3.02872   3.13259
 Alpha virt. eigenvalues --    3.27399   3.34053   3.36880   3.42158   3.46071
 Alpha virt. eigenvalues --    3.47851   3.56715   3.71873   3.72501   3.80550
 Alpha virt. eigenvalues --    3.88337   3.90286   4.00466   4.21664   4.34705
 Alpha virt. eigenvalues --    4.69294   4.69756   4.78733   4.79244   4.84105
 Alpha virt. eigenvalues --    4.94811   4.94906   5.22191   5.22662   5.32151
 Alpha virt. eigenvalues --    5.37753   5.38272   5.45585   5.47870   5.52933
 Alpha virt. eigenvalues --    5.58197   5.62142   5.65563   5.71452   5.74036
 Alpha virt. eigenvalues --    5.77432   5.79280   5.79953   5.85721   5.88358
 Alpha virt. eigenvalues --    5.90969   5.93808   5.98413   6.02577   6.02886
 Alpha virt. eigenvalues --    6.04004   6.10548   6.10812   6.16793   6.34167
 Alpha virt. eigenvalues --    6.37346   6.41574   6.44979   6.54670   6.67660
 Alpha virt. eigenvalues --    6.69584   6.77612   6.78706   6.85568   6.88115
 Alpha virt. eigenvalues --    7.01156   7.09044   7.10069   7.16178   7.21654
 Alpha virt. eigenvalues --    7.30423   7.35904   7.40982   7.41629   7.46794
 Alpha virt. eigenvalues --    7.47865   7.49002   7.60074   7.63747   7.71097
 Alpha virt. eigenvalues --    7.72948   7.80900   7.88530   7.92277   7.98887
 Alpha virt. eigenvalues --    8.00115   8.03734   8.12177   8.15234   8.20444
 Alpha virt. eigenvalues --    8.24757   8.28302   8.29704   8.46796   8.50997
 Alpha virt. eigenvalues --    8.58592   8.82935   8.84484   8.96242   9.34716
 Alpha virt. eigenvalues --    9.46513   9.52035   9.52297   9.64041   9.79269
 Alpha virt. eigenvalues --    9.98774  10.08784  10.44696  10.60406  10.74322
 Alpha virt. eigenvalues --   11.51939  12.42687  12.82493  28.21815  29.17540
 Alpha virt. eigenvalues --  145.68325 146.67626
  Beta  occ. eigenvalues --  -10.56137 -10.55004  -0.84626  -0.63489  -0.51627
  Beta  occ. eigenvalues --   -0.48336  -0.33613
  Beta virt. eigenvalues --   -0.04416   0.02018   0.03773   0.03974   0.07725
  Beta virt. eigenvalues --    0.11311   0.12326   0.13798   0.14830   0.15193
  Beta virt. eigenvalues --    0.17984   0.18100   0.20259   0.20822   0.21402
  Beta virt. eigenvalues --    0.22408   0.22880   0.25428   0.26381   0.26915
  Beta virt. eigenvalues --    0.29141   0.30209   0.31233   0.32328   0.32747
  Beta virt. eigenvalues --    0.34514   0.35923   0.35979   0.37206   0.38974
  Beta virt. eigenvalues --    0.41018   0.44593   0.46693   0.48643   0.52692
  Beta virt. eigenvalues --    0.54821   0.57763   0.58766   0.63564   0.66679
  Beta virt. eigenvalues --    0.67882   0.71395   0.73515   0.79567   0.80075
  Beta virt. eigenvalues --    0.83304   0.84722   0.86481   0.91275   0.92314
  Beta virt. eigenvalues --    0.94252   0.95238   0.96524   1.01099   1.04449
  Beta virt. eigenvalues --    1.04972   1.10818   1.15218   1.17198   1.21252
  Beta virt. eigenvalues --    1.29693   1.31875   1.33021   1.37789   1.52123
  Beta virt. eigenvalues --    1.59996   1.67547   1.77102   1.81146   1.82207
  Beta virt. eigenvalues --    1.84860   1.86250   1.92440   1.96132   1.96708
  Beta virt. eigenvalues --    1.99593   2.00635   2.01897   2.06284   2.08944
  Beta virt. eigenvalues --    2.10633   2.11509   2.15999   2.19183   2.22885
  Beta virt. eigenvalues --    2.29576   2.35061   2.39658   2.42468   2.48001
  Beta virt. eigenvalues --    2.48334   2.53904   2.55023   2.55912   2.62640
  Beta virt. eigenvalues --    2.63437   2.67833   2.69660   2.70117   2.71641
  Beta virt. eigenvalues --    2.80018   2.81664   2.83871   2.92736   3.02145
  Beta virt. eigenvalues --    3.11923   3.26748   3.33162   3.36656   3.40676
  Beta virt. eigenvalues --    3.46032   3.46477   3.56298   3.71218   3.73183
  Beta virt. eigenvalues --    3.81038   3.87296   3.89342   3.99271   4.21758
  Beta virt. eigenvalues --    4.34666   4.72267   4.72378   4.80275   4.80785
  Beta virt. eigenvalues --    4.86290   4.94029   4.94882   5.22423   5.23251
  Beta virt. eigenvalues --    5.33276   5.38095   5.38516   5.45224   5.50251
  Beta virt. eigenvalues --    5.55111   5.61200   5.67389   5.69216   5.76657
  Beta virt. eigenvalues --    5.77846   5.78432   5.82578   5.85636   5.86441
  Beta virt. eigenvalues --    5.92724   5.92727   5.96455   6.00988   6.05854
  Beta virt. eigenvalues --    6.06312   6.07870   6.13724   6.17410   6.18716
  Beta virt. eigenvalues --    6.32810   6.40760   6.44695   6.48151   6.56238
  Beta virt. eigenvalues --    6.67800   6.68702   6.78555   6.80556   6.88593
  Beta virt. eigenvalues --    6.90877   7.03580   7.10011   7.11423   7.19633
  Beta virt. eigenvalues --    7.23566   7.30801   7.37107   7.40628   7.42259
  Beta virt. eigenvalues --    7.47631   7.48537   7.49036   7.60615   7.65014
  Beta virt. eigenvalues --    7.71849   7.74155   7.81925   7.91219   7.94214
  Beta virt. eigenvalues --    7.99553   8.00071   8.06016   8.11701   8.16295
  Beta virt. eigenvalues --    8.21205   8.25424   8.32019   8.33515   8.46917
  Beta virt. eigenvalues --    8.58315   8.61253   8.85206   8.87832   8.96371
  Beta virt. eigenvalues --    9.36911   9.50764   9.52516   9.53720   9.61804
  Beta virt. eigenvalues --    9.91386  10.05891  10.15332  10.48718  10.61303
  Beta virt. eigenvalues --   10.81638  11.51145  12.55347  12.79442  28.28592
  Beta virt. eigenvalues --   29.21653 145.69337 146.68202
          Condensed to atoms (all electrons):
               1          2          3          4          5
     1  C    5.762810   0.172643   0.623009  -0.230779  -0.056625
     2  H    0.172643   0.966032  -0.196780  -0.152559  -0.172422
     3  C    0.623009  -0.196780   5.668794   0.259256   0.224939
     4  H   -0.230779  -0.152559   0.259256   0.799369   0.138615
     5  H   -0.056625  -0.172422   0.224939   0.138615   0.584399
          Atomic-Atomic Spin Densities.
               1          2          3          4          5
     1  C    1.102095   0.301410  -0.182169  -0.012439  -0.125419
     2  H    0.301410  -0.149110   0.017275   0.049323  -0.004970
     3  C   -0.182169   0.017275  -0.361187   0.062761   0.124026
     4  H   -0.012439   0.049323   0.062761  -0.163519  -0.025775
     5  H   -0.125419  -0.004970   0.124026  -0.025775   0.163675
 Mulliken charges and spin densities:
               1          2
     1  C   -0.271059   1.083477
     2  H    0.383085   0.213928
     3  C   -0.579219  -0.339293
     4  H    0.186099  -0.089650
     5  H    0.281094   0.131538
 Sum of Mulliken charges =  -0.00000   1.00000
 Mulliken charges and spin densities with hydrogens summed into heavy atoms:
               1          2
     1  C    0.112026   1.297405
     3  C   -0.112026  -0.297405
 Electronic spatial extent (au):  <R**2>=             73.2578
 Charge=             -0.0000 electrons
 Dipole moment (field-independent basis, Debye):
    X=             -0.5882    Y=             -0.2851    Z=              0.0000  Tot=              0.6536
 Quadrupole moment (field-independent basis, Debye-Ang):
   XX=            -12.4607   YY=            -11.4192   ZZ=            -14.9582
   XY=             -1.1818   XZ=              0.0000   YZ=              0.0000
 Traceless Quadrupole moment (field-independent basis, Debye-Ang):
   XX=              0.4854   YY=              1.5268   ZZ=             -2.0122
   XY=             -1.1818   XZ=              0.0000   YZ=              0.0000
 Octapole moment (field-independent basis, Debye-Ang**2):
  XXX=             -0.9948  YYY=             -0.1490  ZZZ=              0.0000  XYY=             -1.9290
  XXY=             -1.4788  XXZ=              0.0000  XZZ=             -0.2845  YZZ=             -0.2653
  YYZ=              0.0000  XYZ=              0.0000
 Hexadecapole moment (field-independent basis, Debye-Ang**3):
 XXXX=            -23.7136 YYYY=            -61.8011 ZZZZ=            -18.7072 XXXY=              0.7050
 XXXZ=              0.0000 YYYX=             -1.5451 YYYZ=              0.0000 ZZZX=              0.0000
 ZZZY=              0.0000 XXYY=            -12.7947 XXZZ=             -7.5573 YYZZ=            -14.5937
 XXYZ=              0.0000 YYXZ=              0.0000 ZZXY=              0.5625
 N-N= 2.838928187423D+01 E-N=-2.371345071861D+02  KE= 7.752900309653D+01
                          Isotropic Fermi Contact Couplings
        Atom                 a.u.       MegaHertz       Gauss      10(-4) cm-1
     1  C(13)              0.40589     456.29616     162.81782     152.20402
     2  H(1)               0.01070      47.83083      17.06723      15.95465
     3  C(13)             -0.01749     -19.65887      -7.01477      -6.55749
     4  H(1)               0.02441     109.13160      38.94087      36.40238
     5  H(1)               0.03664     163.75636      58.43234      54.62324
 PrsmSu:  requested number of processors reduced to:  21 ShMem   1 Linda.
 --------------------------------------------------------
       Center         ----  Spin Dipole Couplings  ----
                      3XX-RR        3YY-RR        3ZZ-RR
 --------------------------------------------------------
     1   Atom        0.743820     -0.366510     -0.377311
     2   Atom        0.022042      0.039499     -0.061541
     3   Atom        0.035902      0.138230     -0.174133
     4   Atom       -0.010784      0.023477     -0.012693
     5   Atom       -0.001969      0.012893     -0.010924
 --------------------------------------------------------
                        XY            XZ            YZ
 --------------------------------------------------------
     1   Atom        0.565761      0.000000      0.000000
     2   Atom       -0.049668      0.000000      0.000000
     3   Atom        0.015265      0.000000      0.000000
     4   Atom       -0.006228      0.000000      0.000000
     5   Atom        0.004229      0.000000      0.000000
 --------------------------------------------------------


 ---------------------------------------------------------------------------------
              Anisotropic Spin Dipole Couplings in Principal Axis System
 ---------------------------------------------------------------------------------

       Atom             a.u.   MegaHertz   Gauss  10(-4) cm-1        Axes

              Baa    -0.6040   -81.050   -28.921   -27.035 -0.3870  0.9221 -0.0000
     1 C(13)  Bbb    -0.3773   -50.631   -18.067   -16.889  0.0000  0.0000  1.0000
              Bcc     0.9813   131.682    46.987    43.924  0.9221  0.3870  0.0000
 
              Baa    -0.0615   -32.835   -11.716   -10.953  0.0000  0.0000  1.0000
     2 H(1)   Bbb    -0.0197   -10.489    -3.743    -3.499  0.7659  0.6430  0.0000
              Bcc     0.0812    43.324    15.459    14.451 -0.6430  0.7659  0.0000
 
              Baa    -0.1741   -23.367    -8.338    -7.794  0.0000  0.0000  1.0000
     3 C(13)  Bbb     0.0337     4.519     1.612     1.507  0.9895 -0.1445 -0.0000
              Bcc     0.1405    18.848     6.726     6.287  0.1445  0.9895  0.0000
 
              Baa    -0.0127    -6.772    -2.416    -2.259  0.0000  0.0000  1.0000
     4 H(1)   Bbb    -0.0119    -6.339    -2.262    -2.115  0.9848  0.1735  0.0000
              Bcc     0.0246    13.111     4.678     4.374 -0.1735  0.9848  0.0000
 
              Baa    -0.0109    -5.829    -2.080    -1.944  0.0000  0.0000  1.0000
     5 H(1)   Bbb    -0.0031    -1.647    -0.588    -0.550  0.9667 -0.2558 -0.0000
              Bcc     0.0140     7.476     2.668     2.494  0.2558  0.9667  0.0000
 

 ---------------------------------------------------------------------------------

 PrsmSu:  requested number of processors reduced to:  21 ShMem   1 Linda.
 No NMR shielding tensors so no spin-rotation constants.
 Leave Link  601 at Sat Apr 17 06:26:55 2021, MaxMem=   104857600 cpu:             218.4 elap:               4.9
 (Enter /s/ls4/users/knvvv/bin/g16sse/l9999.exe)

 Test job not archived.
 1\1\GINC-N181\Stability\UM062X\Gen\C2H3(2)\KNVVV\17-Apr-2021\0\\#P M06
 2X/GEN Integral=UltraFineGrid SCF=NoSymm Stable=(RExt, Opt) IOp(1/33=1
 )\\Database calculations.\\0,2\C,0,0.,0.,0.\H,0,0.,0.,1.07859007\C,0,0
 .8954777672,0.,-0.961157842\H,0,0.6149762357,0.,-2.0085568394\H,0,1.96
 26424195,0.,-0.7399032954\\Version=ES64L-G16RevA.03\State=2-A'\HF=-77.
 8964107\S2=0.76694\S2-1=0.\S2A=0.750098\RMSD=4.792e-09\Dipole=0.245772
 2,0.,0.0756787\Quadrupole=-0.1557603,-1.4960357,1.651796,0.,-0.3241037
 ,0.\PG=CS [SG(C2H3)]\\@


 FAULTILY FAULTLESS, ICILY REGULAR, SPLENDIDLY NULL...
           MAUDE BY TENNYSON
 Job cpu time:       0 days  2 hours 29 minutes 16.1 seconds.
 Elapsed time:       0 days  0 hours  3 minutes 46.6 seconds.
 File lengths (MBytes):  RWF=    130 Int=      0 D2E=      0 Chk=      7 Scr=      1
 Normal termination of Gaussian 16 at Sat Apr 17 06:26:55 2021.
