 Entering Gaussian System, Link 0=/s/ls4/users/knvvv/bin/g16sse/g16
 Input=data/database/M062X--def2-QZVPPD--101_acetaldehyde_W4-11.gjf
 Output=data/database/M062X--def2-QZVPPD--101_acetaldehyde_W4-11.log
 Initial command:
 /s/ls4/users/knvvv/bin/g16sse/l1.exe "/s/ls4/users/knvvv/bin/scratch/Gau-7173.inp" -scrdir="/s/ls4/users/knvvv/bin/scratch/"
 Entering Link 1 = /s/ls4/users/knvvv/bin/g16sse/l1.exe PID=      7174.
  
 Copyright (c) 1988,1990,1992,1993,1995,1998,2003,2009,2016,
            Gaussian, Inc.  All Rights Reserved.
  
 This is part of the Gaussian(R) 16 program.  It is based on
 the Gaussian(R) 09 system (copyright 2009, Gaussian, Inc.),
 the Gaussian(R) 03 system (copyright 2003, Gaussian, Inc.),
 the Gaussian(R) 98 system (copyright 1998, Gaussian, Inc.),
 the Gaussian(R) 94 system (copyright 1995, Gaussian, Inc.),
 the Gaussian 92(TM) system (copyright 1992, Gaussian, Inc.),
 the Gaussian 90(TM) system (copyright 1990, Gaussian, Inc.),
 the Gaussian 88(TM) system (copyright 1988, Gaussian, Inc.),
 the Gaussian 86(TM) system (copyright 1986, Carnegie Mellon
 University), and the Gaussian 82(TM) system (copyright 1983,
 Carnegie Mellon University). Gaussian is a federally registered
 trademark of Gaussian, Inc.
  
 This software contains proprietary and confidential information,
 including trade secrets, belonging to Gaussian, Inc.
  
 This software is provided under written license and may be
 used, copied, transmitted, or stored only in accord with that
 written license.
  
 The following legend is applicable only to US Government
 contracts under FAR:
  
                    RESTRICTED RIGHTS LEGEND
  
 Use, reproduction and disclosure by the US Government is
 subject to restrictions as set forth in subparagraphs (a)
 and (c) of the Commercial Computer Software - Restricted
 Rights clause in FAR 52.227-19.
  
 Gaussian, Inc.
 340 Quinnipiac St., Bldg. 40, Wallingford CT 06492
  
  
 ---------------------------------------------------------------
 Warning -- This program may not be used in any manner that
 competes with the business of Gaussian, Inc. or will provide
 assistance to any competitor of Gaussian, Inc.  The licensee
 of this program is prohibited from giving any competitor of
 Gaussian, Inc. access to this program.  By using this program,
 the user acknowledges that Gaussian, Inc. is engaged in the
 business of creating and licensing software in the field of
 computational chemistry and represents and warrants to the
 licensee that it is not a competitor of Gaussian, Inc. and that
 it will not use this program in any manner prohibited above.
 ---------------------------------------------------------------
  

 Cite this work as:
 Gaussian 16, Revision A.03,
 M. J. Frisch, G. W. Trucks, H. B. Schlegel, G. E. Scuseria, 
 M. A. Robb, J. R. Cheeseman, G. Scalmani, V. Barone, 
 G. A. Petersson, H. Nakatsuji, X. Li, M. Caricato, A. V. Marenich, 
 J. Bloino, B. G. Janesko, R. Gomperts, B. Mennucci, H. P. Hratchian, 
 J. V. Ortiz, A. F. Izmaylov, J. L. Sonnenberg, D. Williams-Young, 
 F. Ding, F. Lipparini, F. Egidi, J. Goings, B. Peng, A. Petrone, 
 T. Henderson, D. Ranasinghe, V. G. Zakrzewski, J. Gao, N. Rega, 
 G. Zheng, W. Liang, M. Hada, M. Ehara, K. Toyota, R. Fukuda, 
 J. Hasegawa, M. Ishida, T. Nakajima, Y. Honda, O. Kitao, H. Nakai, 
 T. Vreven, K. Throssell, J. A. Montgomery, Jr., J. E. Peralta, 
 F. Ogliaro, M. J. Bearpark, J. J. Heyd, E. N. Brothers, K. N. Kudin, 
 V. N. Staroverov, T. A. Keith, R. Kobayashi, J. Normand, 
 K. Raghavachari, A. P. Rendell, J. C. Burant, S. S. Iyengar, 
 J. Tomasi, M. Cossi, J. M. Millam, M. Klene, C. Adamo, R. Cammi, 
 J. W. Ochterski, R. L. Martin, K. Morokuma, O. Farkas, 
 J. B. Foresman, and D. J. Fox, Gaussian, Inc., Wallingford CT, 2016.
 
 ******************************************
 Gaussian 16:  ES64L-G16RevA.03 25-Dec-2016
                17-Apr-2021 
 ******************************************
 %RWF=temp12_6503,70GB
 %nprocshared=48
 Will use up to   48 processors via shared memory.
 Default route: MaxDisk=80GB
 ----------------------------------------------------------------------
 #P M062X/GEN Integral=UltraFineGrid SCF=NoSymm Stable=(RExt, Opt) IOp(
 1/33=1)
 ----------------------------------------------------------------------
 1/33=1,38=1,172=1/1;
 2/12=2,17=6,18=5,40=1/2;
 3/5=7,11=2,25=1,30=1,74=-55,75=-5/1,2,3;
 4/9=2/1;
 5/5=2,38=5/2;
 6/7=2,8=2,9=2,10=2,28=1/1;
 8/6=1,10=90,11=11/1;
 9/8=-3,42=1,46=1/14;
 5/5=2,8=3,17=40,38=5/8(-2);
 6/7=2,8=2,9=2,10=2,28=1/1;
 99/5=1,9=1/99;
 Leave Link    1 at Sat Apr 17 05:36:36 2021, MaxMem=           0 cpu:               8.2 elap:               0.2
 (Enter /s/ls4/users/knvvv/bin/g16sse/l101.exe)
 ONIOM data not found on unit 2.
 ----------------------
 Database calculations.
 ----------------------
 TstMul:  ICh=     0
 TstMul:  Mul=     1
 TstMul:  ICh=     0
 TstMul:  Mul=     1
 Symbolic Z-matrix:
 Charge =  0 Multiplicity = 1
 C                     0.        0.        0. 
 O                     0.        0.        1.2088 
 H                     0.95684   0.       -0.55616 
 C                    -1.24079   0.       -0.84733 
 H                    -2.12945   0.       -0.2207 
 H                    -1.23716   0.87844  -1.49655 
 H                    -1.23716  -0.87844  -1.49655 
 
 RdStrC is calling ZToCFu for IStruc=1 NZ=     7.
 PrtBox:  NBox=     1 Levels=  1 BoxLen=    8.00 SMaxX=        5.83
          Shift=            4.024070            1.660012            2.828067
 Box      1 Number                   0 centers from      1 to      7:
 After GenITR:
 ITRead=  0  0  0  0  0  0  0
 MicOpt= -1 -1 -1 -1 -1 -1 -1
 ITRead=  0  0  0  0  0  0  0
 MicOpt= -1 -1 -1 -1 -1 -1 -1
 NAtoms=      7 NQM=        7 NQMF=       0 NMMI=      0 NMMIF=      0
                NMic=       0 NMicF=      0.
                    Isotopes and Nuclear Properties:
 (Nuclear quadrupole moments (NQMom) in fm**2, nuclear magnetic moments (NMagM)
  in nuclear magnetons)

  Atom         1           2           3           4           5           6           7
 IAtWgt=          12          16           1          12           1           1           1
 AtmWgt=  12.0000000  15.9949146   1.0078250  12.0000000   1.0078250   1.0078250   1.0078250
 NucSpn=           0           0           1           0           1           1           1
 AtZEff=  -0.0000000  -0.0000000  -0.0000000  -0.0000000  -0.0000000  -0.0000000  -0.0000000
 NQMom=    0.0000000   0.0000000   0.0000000   0.0000000   0.0000000   0.0000000   0.0000000
 NMagM=    0.0000000   0.0000000   2.7928460   0.0000000   2.7928460   2.7928460   2.7928460
 AtZNuc=   6.0000000   8.0000000   1.0000000   6.0000000   1.0000000   1.0000000   1.0000000
 No MM parameters found.
 Leave Link  101 at Sat Apr 17 05:36:36 2021, MaxMem=   104857600 cpu:               7.2 elap:               0.2
 (Enter /s/ls4/users/knvvv/bin/g16sse/l202.exe)
                          Input orientation:                          
 ---------------------------------------------------------------------
 Center     Atomic      Atomic             Coordinates (Angstroms)
 Number     Number       Type             X           Y           Z
 ---------------------------------------------------------------------
      1          6           0        0.000000    0.000000    0.000000
      2          8           0        0.000000    0.000000    1.208802
      3          1           0        0.956844    0.000000   -0.556162
      4          6           0       -1.240788    0.000000   -0.847327
      5          1           0       -2.129446    0.000000   -0.220697
      6          1           0       -1.237162    0.878440   -1.496549
      7          1           0       -1.237162   -0.878440   -1.496549
 ---------------------------------------------------------------------
                    Distance matrix (angstroms):
                    1          2          3          4          5
     1  C    0.000000
     2  O    1.208802   0.000000
     3  H    1.106737   2.007648   0.000000
     4  C    1.502504   2.401504   2.216836   0.000000
     5  H    2.140852   2.564763   3.104468   1.087372   0.000000
     6  H    2.131170   3.101798   2.543549   1.092318   1.787631
     7  H    2.131170   3.101798   2.543549   1.092318   1.787631
                    6          7
     6  H    0.000000
     7  H    1.756881   0.000000
 Stoichiometry    C2H4O
 Framework group  CS[SG(C2H2O),X(H2)]
 Deg. of freedom    10
 Full point group                 CS      NOp   2
 Largest Abelian subgroup         CS      NOp   2
 Largest concise Abelian subgroup CS      NOp   2
                         Standard orientation:                         
 ---------------------------------------------------------------------
 Center     Atomic      Atomic             Coordinates (Angstroms)
 Number     Number       Type             X           Y           Z
 ---------------------------------------------------------------------
      1          6           0        0.000000    0.463403    0.000000
      2          8           0        1.205540    0.374658    0.000000
      3          1           0       -0.484415    1.458495    0.000000
      4          6           0       -0.936133   -0.711830    0.000000
      5          1           0       -0.376435   -1.644095    0.000000
      6          1           0       -1.583337   -0.660551    0.878440
      7          1           0       -1.583337   -0.660551   -0.878440
 ---------------------------------------------------------------------
 Rotational constants (GHZ):          56.9682330          10.1743599           9.1170520
 Leave Link  202 at Sat Apr 17 05:36:36 2021, MaxMem=   104857600 cpu:               6.2 elap:               0.2
 (Enter /s/ls4/users/knvvv/bin/g16sse/l301.exe)
 General basis read from cards:  (5D, 7F)
 Centers:       3      5      6      7
 S 4 1.00
     Exponent=  1.9069169000D+02 Coefficients=  7.0815167000D-04
     Exponent=  2.8605532000D+01 Coefficients=  5.4678827000D-03
     Exponent=  6.5095943000D+00 Coefficients=  2.7966605000D-02
     Exponent=  1.8412455000D+00 Coefficients=  1.0764538000D-01
 S 1 1.00
     Exponent=  5.9853725000D-01 Coefficients=  1.0000000000D+00
 S 1 1.00
     Exponent=  2.1397624000D-01 Coefficients=  1.0000000000D+00
 S 1 1.00
     Exponent=  8.0316286000D-02 Coefficients=  1.0000000000D+00
 P 1 1.00
     Exponent=  2.2920000000D+00 Coefficients=  1.0000000000D+00
 P 1 1.00
     Exponent=  8.3800000000D-01 Coefficients=  1.0000000000D+00
 P 1 1.00
     Exponent=  2.9200000000D-01 Coefficients=  1.0000000000D+00
 P 1 1.00
     Exponent=  8.4063199228D-02 Coefficients=  1.0000000000D+00
 D 1 1.00
     Exponent=  2.0620000000D+00 Coefficients=  1.0000000000D+00
 D 1 1.00
     Exponent=  6.6200000000D-01 Coefficients=  1.0000000000D+00
 F 1 1.00
     Exponent=  1.3970000000D+00 Coefficients=  1.0000000000D+00
 ****
 Centers:       1      4
 S 8 1.00
     Exponent=  6.7025071029D+04 Coefficients=  3.8736308501D-05
     Exponent=  1.0039986538D+04 Coefficients=  3.0107917575D-04
     Exponent=  2.2849316911D+03 Coefficients=  1.5787918095D-03
     Exponent=  6.4714122130D+02 Coefficients=  6.6087087195D-03
     Exponent=  2.1109472335D+02 Coefficients=  2.3367123250D-02
     Exponent=  7.6177643862D+01 Coefficients=  7.0420716898D-02
     Exponent=  2.9633839163D+01 Coefficients=  1.7360344953D-01
     Exponent=  1.2187785081D+01 Coefficients=  3.2292305648D-01
 S 2 1.00
     Exponent=  5.3026006299D+01 Coefficients=  7.4897404492D-02
     Exponent=  1.5258502776D+01 Coefficients=  7.6136220983D-01
 S 1 1.00
     Exponent=  5.2403957464D+00 Coefficients=  1.0000000000D+00
 S 1 1.00
     Exponent=  2.2905022379D+00 Coefficients=  1.0000000000D+00
 S 1 1.00
     Exponent=  6.9673283006D-01 Coefficients=  1.0000000000D+00
 S 1 1.00
     Exponent=  2.7599337363D-01 Coefficients=  1.0000000000D+00
 S 1 1.00
     Exponent=  1.0739884389D-01 Coefficients=  1.0000000000D+00
 S 1 1.00
     Exponent=  4.4981404899D-02 Coefficients=  1.0000000000D+00
 P 5 1.00
     Exponent=  1.0512555082D+02 Coefficients=  8.4647553844D-04
     Exponent=  2.4884461066D+01 Coefficients=  6.6274038534D-03
     Exponent=  7.8637230826D+00 Coefficients=  3.0120390419D-02
     Exponent=  2.8407001835D+00 Coefficients=  9.9951435476D-02
     Exponent=  1.1227137335D+00 Coefficients=  2.3826299282D-01
 P 1 1.00
     Exponent=  4.6050725555D-01 Coefficients=  1.0000000000D+00
 P 1 1.00
     Exponent=  1.8937530913D-01 Coefficients=  1.0000000000D+00
 P 1 1.00
     Exponent=  7.5983791611D-02 Coefficients=  1.0000000000D+00
 D 1 1.00
     Exponent=  1.8480000000D+00 Coefficients=  1.0000000000D+00
 D 1 1.00
     Exponent=  6.4900000000D-01 Coefficients=  1.0000000000D+00
 D 1 1.00
     Exponent=  2.2800000000D-01 Coefficients=  1.0000000000D+00
 D 1 1.00
     Exponent=  7.6889830417D-02 Coefficients=  1.0000000000D+00
 F 1 1.00
     Exponent=  1.4190000000D+00 Coefficients=  1.0000000000D+00
 F 1 1.00
     Exponent=  4.8500000000D-01 Coefficients=  1.0000000000D+00
 G 1 1.00
     Exponent=  1.0110000000D+00 Coefficients=  1.0000000000D+00
 ****
 Centers:       2
 S 8 1.00
     Exponent=  1.1650646908D+05 Coefficients=  4.0383857939D-05
     Exponent=  1.7504349724D+04 Coefficients=  3.1255139004D-04
     Exponent=  3.9934513230D+03 Coefficients=  1.6341473495D-03
     Exponent=  1.1330063186D+03 Coefficients=  6.8283224757D-03
     Exponent=  3.6999569594D+02 Coefficients=  2.4124410221D-02
     Exponent=  1.3362074349D+02 Coefficients=  7.2730206154D-02
     Exponent=  5.2035643649D+01 Coefficients=  1.7934429892D-01
     Exponent=  2.1461939313D+01 Coefficients=  3.3059588895D-01
 S 2 1.00
     Exponent=  8.9835051252D+01 Coefficients=  9.6468652996D-02
     Exponent=  2.6428010844D+01 Coefficients=  9.4117481120D-01
 S 1 1.00
     Exponent=  9.2822824649D+00 Coefficients=  1.0000000000D+00
 S 1 1.00
     Exponent=  4.0947728533D+00 Coefficients=  1.0000000000D+00
 S 1 1.00
     Exponent=  1.3255349078D+00 Coefficients=  1.0000000000D+00
 S 1 1.00
     Exponent=  5.1877230787D-01 Coefficients=  1.0000000000D+00
 S 1 1.00
     Exponent=  1.9772676454D-01 Coefficients=  1.0000000000D+00
 S 1 1.00
     Exponent=  6.9638535104D-02 Coefficients=  1.0000000000D+00
 P 5 1.00
     Exponent=  1.9115255810D+02 Coefficients=  2.5115697705D-03
     Exponent=  4.5233356739D+01 Coefficients=  2.0039240864D-02
     Exponent=  1.4353465922D+01 Coefficients=  9.3609064762D-02
     Exponent=  5.2422371832D+00 Coefficients=  3.0618127124D-01
     Exponent=  2.0792418599D+00 Coefficients=  6.7810501439D-01
 P 1 1.00
     Exponent=  8.4282371424D-01 Coefficients=  1.0000000000D+00
 P 1 1.00
     Exponent=  3.3617694891D-01 Coefficients=  1.0000000000D+00
 P 1 1.00
     Exponent=  1.2863997974D-01 Coefficients=  1.0000000000D+00
 P 1 1.00
     Exponent=  4.3598162776D-02 Coefficients=  1.0000000000D+00
 D 1 1.00
     Exponent=  3.7750000000D+00 Coefficients=  1.0000000000D+00
 D 1 1.00
     Exponent=  1.3000000000D+00 Coefficients=  1.0000000000D+00
 D 1 1.00
     Exponent=  4.4400000000D-01 Coefficients=  1.0000000000D+00
 D 1 1.00
     Exponent=  1.2546378695D-01 Coefficients=  1.0000000000D+00
 F 1 1.00
     Exponent=  2.6660000000D+00 Coefficients=  1.0000000000D+00
 F 1 1.00
     Exponent=  8.5900000000D-01 Coefficients=  1.0000000000D+00
 G 1 1.00
     Exponent=  1.8460000000D+00 Coefficients=  1.0000000000D+00
 ****
 Ernie: Thresh=  0.10000D-02 Tol=  0.10000D-05 Strict=F.
 There are   251 symmetry adapted cartesian basis functions of A'  symmetry.
 There are   141 symmetry adapted cartesian basis functions of A"  symmetry.
 There are   202 symmetry adapted basis functions of A'  symmetry.
 There are   122 symmetry adapted basis functions of A"  symmetry.
   324 basis functions,   464 primitive gaussians,   392 cartesian basis functions
    12 alpha electrons       12 beta electrons
       nuclear repulsion energy        69.7348702339 Hartrees.
 IExCor= 4336 DFT=T Ex+Corr=M062X ExCW=0 ScaHFX=  0.540000
 ScaDFX=  1.000000  1.000000  1.000000  1.000000 ScalE2=  1.000000  1.000000
 IRadAn=      5 IRanWt=     -1 IRanGd=            0 ICorTp=0 IEmpDi=  4
 NAtoms=    7 NActive=    7 NUniq=    6 SFac= 1.36D+00 NAtFMM=   60 NAOKFM=F Big=F
 Integral buffers will be    131072 words long.
 Raffenetti 2 integral format.
 Two-electron integral symmetry is turned on.
 Leave Link  301 at Sat Apr 17 05:36:37 2021, MaxMem=   104857600 cpu:              11.4 elap:               0.3
 (Enter /s/ls4/users/knvvv/bin/g16sse/l302.exe)
 NPDir=0 NMtPBC=     1 NCelOv=     1 NCel=       1 NClECP=     1 NCelD=      1
         NCelK=      1 NCelE2=     1 NClLst=     1 CellRange=     0.0.
 One-electron integrals computed using PRISM.
 One-electron integral symmetry used in STVInt
 PrsmSu:  requested number of processors reduced to:   4 ShMem   1 Linda.
 PrsmSu:  requested number of processors reduced to:  21 ShMem   1 Linda.
 NBasis=   324 RedAO= T EigKep=  1.13D-06  NBF=   202   122
 NBsUse=   323 1.00D-06 EigRej=  7.08D-07 NBFU=   201   122
 Precomputing XC quadrature grid using
 IXCGrd= 4 IRadAn=           5 IRanWt=          -1 IRanGd=           0 AccXCQ= 0.00D+00.
 Generated NRdTot=       0 NPtTot=           0 NUsed=           0 NTot=          32
 NSgBfM=   392   392   392   392   392 MxSgAt=     7 MxSgA2=     7.
 Leave Link  302 at Sat Apr 17 05:36:43 2021, MaxMem=   104857600 cpu:             310.3 elap:               6.7
 (Enter /s/ls4/users/knvvv/bin/g16sse/l303.exe)
 DipDrv:  MaxL=1.
 Leave Link  303 at Sat Apr 17 05:36:45 2021, MaxMem=   104857600 cpu:              64.4 elap:               1.4
 (Enter /s/ls4/users/knvvv/bin/g16sse/l401.exe)
 SCF N**3 symmetry information disabled.
 ExpMin= 4.36D-02 ExpMax= 1.17D+05 ExpMxC= 1.13D+03 IAcc=3 IRadAn=         5 AccDes= 0.00D+00
 Harris functional with IExCor= 1009 and IRadAn=       5 diagonalized for initial guess.
 HarFok:  IExCor= 1009 AccDes= 0.00D+00 IRadAn=         5 IDoV= 1 UseB2=F ITyADJ=14
 ICtDFT=  3500011 ScaDFX=  1.000000  1.000000  1.000000  1.000000
 FoFCou: FMM=F IPFlag=           0 FMFlag=      100000 FMFlg1=           0
         NFxFlg=           0 DoJE=T BraDBF=F KetDBF=T FulRan=T
         wScrn=  0.000000 ICntrl=       500 IOpCl=  0 I1Cent=   200000004 NGrid=           0
         NMat0=    1 NMatS0=      1 NMatT0=    0 NMatD0=    1 NMtDS0=    0 NMtDT0=    0
 Petite list used in FoFCou.
 CoulSu:  requested number of processors reduced to:  20 ShMem   1 Linda.
 CoulSu:  requested number of processors reduced to:  20 ShMem   1 Linda.
 CoulSu:  requested number of processors reduced to:  21 ShMem   1 Linda.
 CoulSu:  requested number of processors reduced to:  21 ShMem   1 Linda.
 Harris En= -153.791950838755    
 JPrj=0 DoOrth=F DoCkMO=F.
 Initial guess orbital symmetries:
       Occupied  (A') (A') (A') (A') (A') (A') (A') (A') (A") (A')
                 (A") (A')
       Virtual   (A") (A') (A') (A') (A") (A') (A") (A') (A') (A")
                 (A') (A') (A') (A') (A") (A') (A") (A') (A') (A')
                 (A") (A") (A') (A') (A") (A') (A') (A') (A") (A')
                 (A") (A') (A') (A") (A") (A') (A') (A") (A') (A')
                 (A') (A") (A") (A') (A') (A") (A') (A') (A') (A')
                 (A") (A") (A') (A') (A') (A") (A') (A') (A") (A")
                 (A') (A') (A") (A') (A") (A') (A') (A') (A") (A")
                 (A') (A') (A') (A") (A') (A') (A") (A') (A') (A')
                 (A') (A") (A') (A") (A') (A') (A") (A') (A") (A')
                 (A') (A') (A") (A") (A') (A") (A") (A') (A') (A')
                 (A") (A") (A') (A') (A") (A') (A') (A") (A') (A")
                 (A') (A") (A') (A') (A") (A') (A') (A") (A') (A")
                 (A') (A") (A') (A') (A") (A') (A") (A') (A') (A")
                 (A') (A') (A") (A") (A') (A') (A") (A') (A') (A')
                 (A") (A") (A') (A") (A') (A') (A") (A') (A') (A")
                 (A') (A') (A") (A') (A') (A") (A') (A') (A') (A")
                 (A") (A') (A") (A") (A') (A') (A') (A') (A") (A')
                 (A') (A") (A') (A') (A") (A') (A") (A') (A") (A')
                 (A") (A") (A') (A') (A") (A') (A') (A") (A") (A")
                 (A') (A') (A") (A') (A") (A') (A') (A") (A") (A')
                 (A") (A') (A') (A") (A') (A') (A") (A') (A") (A')
                 (A") (A') (A') (A") (A') (A') (A") (A') (A') (A")
                 (A') (A') (A") (A") (A') (A") (A') (A') (A') (A")
                 (A") (A') (A") (A') (A') (A") (A') (A") (A') (A")
                 (A') (A") (A') (A') (A") (A') (A') (A') (A") (A")
                 (A') (A") (A') (A') (A") (A") (A') (A') (A') (A")
                 (A') (A') (A") (A") (A') (A') (A') (A") (A") (A')
                 (A') (A') (A") (A') (A') (A") (A") (A') (A') (A')
                 (A") (A') (A") (A') (A") (A") (A') (A') (A") (A')
                 (A") (A') (A") (A') (A") (A') (A') (A") (A') (A')
                 (A") (A') (A') (A') (A') (A') (A') (A') (A') (A')
                 (A')
 The electronic state of the initial guess is 1-A'.
 Leave Link  401 at Sat Apr 17 05:36:46 2021, MaxMem=   104857600 cpu:              36.0 elap:               0.9
 (Enter /s/ls4/users/knvvv/bin/g16sse/l502.exe)
 Integral symmetry usage will be decided dynamically.
 Closed shell SCF:
 Using DIIS extrapolation, IDIIS=  1040.
 NGot=   104857600 LenX=   104527471 LenY=   104373366
 Requested convergence on RMS density matrix=1.00D-08 within 128 cycles.
 Requested convergence on MAX density matrix=1.00D-06.
 Requested convergence on             energy=1.00D-06.
 No special actions if energy rises.
 Fock matrices will be formed incrementally for  20 cycles.

 Cycle   1  Pass 1  IDiag  1:
 FoFJK:  IHMeth= 1 ICntrl=       0 DoSepK=F KAlg= 0 I1Cent=           0 FoldK=F
 IRaf= 990000000 NMat=       1 IRICut=       1 DoRegI=T DoRafI=F ISym2E= 1 IDoP0=0 IntGTp=1.
 FoFCou: FMM=F IPFlag=           0 FMFlag=      100000 FMFlg1=           0
         NFxFlg=           0 DoJE=F BraDBF=F KetDBF=F FulRan=T
         wScrn=  0.000000 ICntrl=         0 IOpCl=  0 I1Cent=           0 NGrid=           0
         NMat0=    1 NMatS0=      1 NMatT0=    0 NMatD0=    1 NMtDS0=    0 NMtDT0=    0
 Petite list used in FoFCou.
 CoulSu:  requested number of processors reduced to:  21 ShMem   1 Linda.
 E= -153.718577976103    
 DIIS: error= 3.06D-02 at cycle   1 NSaved=   1.
 NSaved= 1 IEnMin= 1 EnMin= -153.718577976103     IErMin= 1 ErrMin= 3.06D-02
 ErrMax= 3.06D-02  0.00D+00 EMaxC= 1.00D-01 BMatC= 2.03D-01 BMatP= 2.03D-01
 IDIUse=3 WtCom= 6.94D-01 WtEn= 3.06D-01
 Coeff-Com:  0.100D+01
 Coeff-En:   0.100D+01
 Coeff:      0.100D+01
 Gap=     0.293 Goal=   None    Shift=    0.000
 GapD=    0.293 DampG=1.000 DampE=0.500 DampFc=0.5000 IDamp=-1.
 Damping current iteration by 5.00D-01
 RMSDP=2.10D-03 MaxDP=9.01D-02              OVMax= 1.86D-01

 Cycle   2  Pass 1  IDiag  1:
 RMSU=  1.02D-03    CP:  9.50D-01
 CoulSu:  requested number of processors reduced to:  21 ShMem   1 Linda.
 E= -153.772644816332     Delta-E=       -0.054066840229 Rises=F Damp=T
 DIIS: error= 1.29D-02 at cycle   2 NSaved=   2.
 NSaved= 2 IEnMin= 2 EnMin= -153.772644816332     IErMin= 2 ErrMin= 1.29D-02
 ErrMax= 1.29D-02  0.00D+00 EMaxC= 1.00D-01 BMatC= 2.69D-02 BMatP= 2.03D-01
 IDIUse=3 WtCom= 8.71D-01 WtEn= 1.29D-01
 Coeff-Com: -0.618D-01 0.106D+01
 Coeff-En:   0.669D-02 0.993D+00
 Coeff:     -0.529D-01 0.105D+01
 Gap=     0.364 Goal=   None    Shift=    0.000
 RMSDP=1.46D-03 MaxDP=5.66D-02 DE=-5.41D-02 OVMax= 1.16D-01

 Cycle   3  Pass 1  IDiag  1:
 RMSU=  1.41D-03    CP:  8.96D-01  1.26D+00
 CoulSu:  requested number of processors reduced to:  21 ShMem   1 Linda.
 E= -153.824877304224     Delta-E=       -0.052232487891 Rises=F Damp=F
 DIIS: error= 7.95D-03 at cycle   3 NSaved=   3.
 NSaved= 3 IEnMin= 3 EnMin= -153.824877304224     IErMin= 3 ErrMin= 7.95D-03
 ErrMax= 7.95D-03  0.00D+00 EMaxC= 1.00D-01 BMatC= 1.37D-02 BMatP= 2.69D-02
 IDIUse=3 WtCom= 9.21D-01 WtEn= 7.95D-02
 Coeff-Com: -0.135D+00 0.476D+00 0.659D+00
 Coeff-En:   0.000D+00 0.000D+00 0.100D+01
 Coeff:     -0.124D+00 0.438D+00 0.686D+00
 Gap=     0.344 Goal=   None    Shift=    0.000
 RMSDP=2.89D-04 MaxDP=1.72D-02 DE=-5.22D-02 OVMax= 5.41D-02

 Cycle   4  Pass 1  IDiag  1:
 RMSU=  2.67D-04    CP:  9.02D-01  1.34D+00  1.05D+00
 CoulSu:  requested number of processors reduced to:  21 ShMem   1 Linda.
 E= -153.832062660799     Delta-E=       -0.007185356575 Rises=F Damp=F
 DIIS: error= 3.38D-03 at cycle   4 NSaved=   4.
 NSaved= 4 IEnMin= 4 EnMin= -153.832062660799     IErMin= 4 ErrMin= 3.38D-03
 ErrMax= 3.38D-03  0.00D+00 EMaxC= 1.00D-01 BMatC= 3.16D-03 BMatP= 1.37D-02
 IDIUse=3 WtCom= 9.66D-01 WtEn= 3.38D-02
 Coeff-Com: -0.465D-01 0.980D-01 0.374D+00 0.574D+00
 Coeff-En:   0.000D+00 0.000D+00 0.211D+00 0.789D+00
 Coeff:     -0.449D-01 0.947D-01 0.369D+00 0.582D+00
 Gap=     0.347 Goal=   None    Shift=    0.000
 RMSDP=1.06D-04 MaxDP=7.62D-03 DE=-7.19D-03 OVMax= 1.42D-02

 Cycle   5  Pass 1  IDiag  1:
 RMSU=  7.71D-05    CP:  8.98D-01  1.33D+00  1.04D+00  7.48D-01
 CoulSu:  requested number of processors reduced to:  21 ShMem   1 Linda.
 E= -153.834484182076     Delta-E=       -0.002421521277 Rises=F Damp=F
 DIIS: error= 2.23D-04 at cycle   5 NSaved=   5.
 NSaved= 5 IEnMin= 5 EnMin= -153.834484182076     IErMin= 5 ErrMin= 2.23D-04
 ErrMax= 2.23D-04  0.00D+00 EMaxC= 1.00D-01 BMatC= 7.63D-06 BMatP= 3.16D-03
 IDIUse=3 WtCom= 9.98D-01 WtEn= 2.23D-03
 Coeff-Com: -0.559D-03 0.117D-03 0.294D-01 0.754D-01 0.896D+00
 Coeff-En:   0.000D+00 0.000D+00 0.000D+00 0.000D+00 0.100D+01
 Coeff:     -0.558D-03 0.117D-03 0.293D-01 0.753D-01 0.896D+00
 Gap=     0.344 Goal=   None    Shift=    0.000
 RMSDP=3.09D-05 MaxDP=2.63D-03 DE=-2.42D-03 OVMax= 1.31D-03

 Cycle   6  Pass 1  IDiag  1:
 RMSU=  2.62D-05    CP:  8.98D-01  1.32D+00  1.03D+00  7.14D-01  1.03D+00
 CoulSu:  requested number of processors reduced to:  21 ShMem   1 Linda.
 E= -153.834492153880     Delta-E=       -0.000007971804 Rises=F Damp=F
 DIIS: error= 4.30D-05 at cycle   6 NSaved=   6.
 NSaved= 6 IEnMin= 6 EnMin= -153.834492153880     IErMin= 6 ErrMin= 4.30D-05
 ErrMax= 4.30D-05  0.00D+00 EMaxC= 1.00D-01 BMatC= 7.61D-07 BMatP= 7.63D-06
 IDIUse=1 WtCom= 1.00D+00 WtEn= 0.00D+00
 Coeff-Com:  0.329D-02-0.708D-02-0.175D-01-0.236D-01 0.171D+00 0.874D+00
 Coeff:      0.329D-02-0.708D-02-0.175D-01-0.236D-01 0.171D+00 0.874D+00
 Gap=     0.345 Goal=   None    Shift=    0.000
 RMSDP=6.39D-06 MaxDP=2.93D-04 DE=-7.97D-06 OVMax= 4.52D-04

 Cycle   7  Pass 1  IDiag  1:
 RMSU=  3.23D-06    CP:  8.98D-01  1.32D+00  1.04D+00  7.19D-01  1.07D+00
                    CP:  1.09D+00
 CoulSu:  requested number of processors reduced to:  21 ShMem   1 Linda.
 E= -153.834493043423     Delta-E=       -0.000000889543 Rises=F Damp=F
 DIIS: error= 2.18D-05 at cycle   7 NSaved=   7.
 NSaved= 7 IEnMin= 7 EnMin= -153.834493043423     IErMin= 7 ErrMin= 2.18D-05
 ErrMax= 2.18D-05  0.00D+00 EMaxC= 1.00D-01 BMatC= 1.39D-07 BMatP= 7.61D-07
 IDIUse=1 WtCom= 1.00D+00 WtEn= 0.00D+00
 Coeff-Com:  0.106D-02-0.226D-02-0.683D-02-0.142D-01-0.363D-01 0.259D+00
 Coeff-Com:  0.800D+00
 Coeff:      0.106D-02-0.226D-02-0.683D-02-0.142D-01-0.363D-01 0.259D+00
 Coeff:      0.800D+00
 Gap=     0.345 Goal=   None    Shift=    0.000
 RMSDP=2.09D-06 MaxDP=1.05D-04 DE=-8.90D-07 OVMax= 1.32D-04

 Cycle   8  Pass 1  IDiag  1:
 RMSU=  1.55D-06    CP:  8.98D-01  1.31D+00  1.04D+00  7.22D-01  1.07D+00
                    CP:  1.08D+00  1.23D+00
 CoulSu:  requested number of processors reduced to:  21 ShMem   1 Linda.
 E= -153.834493179599     Delta-E=       -0.000000136176 Rises=F Damp=F
 DIIS: error= 4.38D-06 at cycle   8 NSaved=   8.
 NSaved= 8 IEnMin= 8 EnMin= -153.834493179599     IErMin= 8 ErrMin= 4.38D-06
 ErrMax= 4.38D-06  0.00D+00 EMaxC= 1.00D-01 BMatC= 6.44D-09 BMatP= 1.39D-07
 IDIUse=1 WtCom= 1.00D+00 WtEn= 0.00D+00
 Coeff-Com: -0.245D-03 0.498D-03 0.150D-02 0.765D-03-0.205D-01-0.448D-01
 Coeff-Com:  0.588D-01 0.100D+01
 Coeff:     -0.245D-03 0.498D-03 0.150D-02 0.765D-03-0.205D-01-0.448D-01
 Coeff:      0.588D-01 0.100D+01
 Gap=     0.345 Goal=   None    Shift=    0.000
 RMSDP=1.06D-06 MaxDP=8.51D-05 DE=-1.36D-07 OVMax= 4.53D-05

 Cycle   9  Pass 1  IDiag  1:
 RMSU=  3.26D-07    CP:  8.98D-01  1.32D+00  1.04D+00  7.24D-01  1.07D+00
                    CP:  1.06D+00  1.34D+00  1.31D+00
 CoulSu:  requested number of processors reduced to:  21 ShMem   1 Linda.
 E= -153.834493187671     Delta-E=       -0.000000008072 Rises=F Damp=F
 DIIS: error= 1.04D-06 at cycle   9 NSaved=   9.
 NSaved= 9 IEnMin= 9 EnMin= -153.834493187671     IErMin= 9 ErrMin= 1.04D-06
 ErrMax= 1.04D-06  0.00D+00 EMaxC= 1.00D-01 BMatC= 2.27D-10 BMatP= 6.44D-09
 IDIUse=1 WtCom= 1.00D+00 WtEn= 0.00D+00
 Coeff-Com: -0.589D-04 0.127D-03 0.368D-03 0.441D-03-0.161D-02-0.116D-01
 Coeff-Com: -0.355D-01 0.133D+00 0.915D+00
 Coeff:     -0.589D-04 0.127D-03 0.368D-03 0.441D-03-0.161D-02-0.116D-01
 Coeff:     -0.355D-01 0.133D+00 0.915D+00
 Gap=     0.345 Goal=   None    Shift=    0.000
 RMSDP=1.54D-07 MaxDP=9.13D-06 DE=-8.07D-09 OVMax= 9.44D-06

 Cycle  10  Pass 1  IDiag  1:
 RMSU=  9.14D-08    CP:  8.98D-01  1.32D+00  1.04D+00  7.24D-01  1.07D+00
                    CP:  1.06D+00  1.33D+00  1.32D+00  1.08D+00
 CoulSu:  requested number of processors reduced to:  21 ShMem   1 Linda.
 E= -153.834493187944     Delta-E=       -0.000000000272 Rises=F Damp=F
 DIIS: error= 1.86D-07 at cycle  10 NSaved=  10.
 NSaved=10 IEnMin=10 EnMin= -153.834493187944     IErMin=10 ErrMin= 1.86D-07
 ErrMax= 1.86D-07  0.00D+00 EMaxC= 1.00D-01 BMatC= 1.31D-11 BMatP= 2.27D-10
 IDIUse=1 WtCom= 1.00D+00 WtEn= 0.00D+00
 Coeff-Com:  0.789D-05-0.139D-04-0.202D-04-0.224D-04 0.435D-03 0.136D-02
 Coeff-Com: -0.352D-02-0.280D-01 0.656D-02 0.102D+01
 Coeff:      0.789D-05-0.139D-04-0.202D-04-0.224D-04 0.435D-03 0.136D-02
 Coeff:     -0.352D-02-0.280D-01 0.656D-02 0.102D+01
 Gap=     0.345 Goal=   None    Shift=    0.000
 RMSDP=4.83D-08 MaxDP=3.65D-06 DE=-2.72D-10 OVMax= 1.37D-06

 Cycle  11  Pass 1  IDiag  1:
 RMSU=  1.43D-08    CP:  8.98D-01  1.32D+00  1.04D+00  7.24D-01  1.07D+00
                    CP:  1.06D+00  1.33D+00  1.32D+00  1.10D+00  1.21D+00
 CoulSu:  requested number of processors reduced to:  21 ShMem   1 Linda.
 E= -153.834493187953     Delta-E=       -0.000000000009 Rises=F Damp=F
 DIIS: error= 2.99D-08 at cycle  11 NSaved=  11.
 NSaved=11 IEnMin=11 EnMin= -153.834493187953     IErMin=11 ErrMin= 2.99D-08
 ErrMax= 2.99D-08  0.00D+00 EMaxC= 1.00D-01 BMatC= 3.24D-13 BMatP= 1.31D-11
 IDIUse=1 WtCom= 1.00D+00 WtEn= 0.00D+00
 Coeff-Com:  0.251D-05-0.527D-05-0.867D-05-0.920D-05 0.139D-03 0.466D-03
 Coeff-Com:  0.547D-03-0.866D-02-0.328D-01 0.117D+00 0.923D+00
 Coeff:      0.251D-05-0.527D-05-0.867D-05-0.920D-05 0.139D-03 0.466D-03
 Coeff:      0.547D-03-0.866D-02-0.328D-01 0.117D+00 0.923D+00
 Gap=     0.345 Goal=   None    Shift=    0.000
 RMSDP=5.09D-09 MaxDP=3.93D-07 DE=-9.41D-12 OVMax= 2.00D-07

 SCF Done:  E(RM062X) =  -153.834493188     A.U. after   11 cycles
            NFock= 11  Conv=0.51D-08     -V/T= 2.0041
 KE= 1.532027006980D+02 PE=-4.992988166666D+02 EE= 1.225267525467D+02
 Leave Link  502 at Sat Apr 17 05:37:28 2021, MaxMem=   104857600 cpu:            1359.1 elap:              42.3
 (Enter /s/ls4/users/knvvv/bin/g16sse/l601.exe)
 Copying SCF densities to generalized density rwf, IOpCl= 0 IROHF=0.

 **********************************************************************

            Population analysis using the SCF density.

 **********************************************************************

 Orbital symmetries:
       Occupied  (A') (A') (A') (A') (A') (A') (A') (A") (A') (A')
                 (A") (A')
       Virtual   (A') (A") (A') (A") (A') (A') (A") (A') (A') (A")
                 (A') (A') (A') (A") (A') (A') (A") (A') (A") (A')
                 (A') (A") (A') (A') (A") (A') (A") (A') (A') (A")
                 (A") (A') (A') (A') (A") (A') (A") (A') (A') (A')
                 (A') (A") (A") (A') (A') (A") (A') (A') (A') (A')
                 (A") (A') (A") (A') (A") (A') (A') (A") (A') (A")
                 (A') (A") (A') (A') (A") (A') (A') (A') (A") (A")
                 (A') (A') (A") (A') (A') (A') (A") (A') (A') (A')
                 (A') (A") (A') (A') (A") (A') (A") (A") (A') (A')
                 (A') (A') (A") (A") (A') (A") (A') (A") (A') (A")
                 (A') (A") (A') (A") (A') (A') (A') (A") (A") (A')
                 (A') (A") (A') (A") (A') (A') (A") (A') (A') (A")
                 (A') (A") (A') (A') (A") (A') (A') (A") (A') (A')
                 (A") (A') (A") (A") (A') (A') (A") (A') (A') (A")
                 (A') (A") (A') (A") (A') (A') (A") (A') (A') (A')
                 (A") (A') (A') (A") (A") (A') (A') (A') (A') (A")
                 (A") (A') (A") (A") (A') (A') (A') (A") (A') (A')
                 (A') (A") (A') (A') (A') (A") (A") (A') (A") (A")
                 (A') (A") (A') (A') (A") (A') (A") (A') (A") (A')
                 (A") (A") (A') (A") (A') (A") (A') (A') (A") (A")
                 (A') (A') (A") (A') (A') (A') (A") (A') (A") (A')
                 (A") (A') (A') (A") (A') (A") (A') (A') (A") (A')
                 (A') (A') (A") (A") (A') (A") (A') (A") (A') (A')
                 (A") (A') (A") (A') (A') (A") (A") (A') (A') (A")
                 (A') (A") (A') (A') (A") (A') (A') (A") (A") (A')
                 (A') (A") (A') (A') (A") (A') (A") (A') (A') (A")
                 (A") (A') (A') (A") (A') (A") (A') (A') (A") (A')
                 (A') (A") (A') (A") (A') (A") (A') (A') (A') (A')
                 (A") (A') (A") (A') (A") (A") (A') (A') (A") (A')
                 (A") (A') (A") (A") (A') (A') (A') (A") (A') (A')
                 (A") (A') (A') (A') (A') (A') (A') (A') (A') (A')
                 (A')
 The electronic state is 1-A'.
 Alpha  occ. eigenvalues --  -19.63246 -10.64001 -10.55328  -1.17652  -0.85559
 Alpha  occ. eigenvalues --   -0.67247  -0.56484  -0.52108  -0.51926  -0.47091
 Alpha  occ. eigenvalues --   -0.43836  -0.33757
 Alpha virt. eigenvalues --    0.00704   0.00983   0.02960   0.05028   0.05149
 Alpha virt. eigenvalues --    0.07503   0.09283   0.09705   0.09787   0.12925
 Alpha virt. eigenvalues --    0.14231   0.16312   0.17032   0.18292   0.19513
 Alpha virt. eigenvalues --    0.20170   0.20777   0.21930   0.23416   0.25063
 Alpha virt. eigenvalues --    0.26569   0.27230   0.27980   0.28729   0.29353
 Alpha virt. eigenvalues --    0.29641   0.30892   0.31418   0.32625   0.33354
 Alpha virt. eigenvalues --    0.34124   0.34155   0.34815   0.36077   0.36594
 Alpha virt. eigenvalues --    0.37499   0.40884   0.42984   0.43607   0.46647
 Alpha virt. eigenvalues --    0.48864   0.49739   0.50518   0.50853   0.52767
 Alpha virt. eigenvalues --    0.54313   0.54842   0.57067   0.58874   0.62672
 Alpha virt. eigenvalues --    0.63316   0.65930   0.66827   0.68396   0.68915
 Alpha virt. eigenvalues --    0.70532   0.76272   0.82469   0.83908   0.84108
 Alpha virt. eigenvalues --    0.85639   0.87045   0.87513   0.89716   0.91619
 Alpha virt. eigenvalues --    0.94186   0.95436   0.97848   0.98056   1.01384
 Alpha virt. eigenvalues --    1.04769   1.09730   1.12322   1.12417   1.15764
 Alpha virt. eigenvalues --    1.16067   1.19023   1.20419   1.24279   1.34156
 Alpha virt. eigenvalues --    1.35843   1.38635   1.40162   1.44776   1.45349
 Alpha virt. eigenvalues --    1.47211   1.53356   1.55851   1.56473   1.68390
 Alpha virt. eigenvalues --    1.69720   1.73102   1.76478   1.80120   1.85082
 Alpha virt. eigenvalues --    1.86807   1.91619   1.92283   1.94790   2.01418
 Alpha virt. eigenvalues --    2.01591   2.02207   2.02855   2.07829   2.10424
 Alpha virt. eigenvalues --    2.11064   2.12726   2.15098   2.16975   2.17296
 Alpha virt. eigenvalues --    2.23316   2.23823   2.27028   2.29704   2.30884
 Alpha virt. eigenvalues --    2.35635   2.41889   2.42620   2.45599   2.51394
 Alpha virt. eigenvalues --    2.54462   2.56702   2.59105   2.61947   2.63518
 Alpha virt. eigenvalues --    2.72961   2.76268   2.76698   2.79684   2.82838
 Alpha virt. eigenvalues --    2.83359   2.88339   2.90387   2.92191   2.97949
 Alpha virt. eigenvalues --    2.99113   3.04220   3.05546   3.11543   3.16422
 Alpha virt. eigenvalues --    3.20323   3.20450   3.21899   3.27371   3.29795
 Alpha virt. eigenvalues --    3.35570   3.39073   3.42235   3.50677   3.54275
 Alpha virt. eigenvalues --    3.54809   3.61164   3.72324   3.73621   3.84993
 Alpha virt. eigenvalues --    3.85997   3.87475   3.89865   3.93977   4.03350
 Alpha virt. eigenvalues --    4.12685   4.14818   4.20649   4.25889   4.34489
 Alpha virt. eigenvalues --    4.42162   4.45849   4.56647   4.58157   4.78215
 Alpha virt. eigenvalues --    4.86430   4.90096   4.97838   4.98693   5.15589
 Alpha virt. eigenvalues --    5.16384   5.20264   5.33951   5.34072   5.38466
 Alpha virt. eigenvalues --    5.42190   5.46478   5.54587   5.63245   5.63678
 Alpha virt. eigenvalues --    5.67357   5.68870   5.70310   5.73853   5.75663
 Alpha virt. eigenvalues --    5.75921   5.77398   5.79543   5.88483   5.90034
 Alpha virt. eigenvalues --    5.95641   5.95746   5.97518   6.01856   6.07250
 Alpha virt. eigenvalues --    6.07968   6.09185   6.14365   6.16535   6.22012
 Alpha virt. eigenvalues --    6.25999   6.27977   6.36538   6.42449   6.44598
 Alpha virt. eigenvalues --    6.47664   6.50305   6.56744   6.57555   6.67752
 Alpha virt. eigenvalues --    6.69323   6.70869   6.75426   6.89346   6.94377
 Alpha virt. eigenvalues --    7.03705   7.08939   7.15383   7.19207   7.20808
 Alpha virt. eigenvalues --    7.24180   7.26955   7.35907   7.37920   7.39006
 Alpha virt. eigenvalues --    7.41625   7.44785   7.45567   7.50642   7.54382
 Alpha virt. eigenvalues --    7.60548   7.63347   7.63961   7.66486   7.73313
 Alpha virt. eigenvalues --    7.73536   7.74979   7.83608   7.91928   7.92075
 Alpha virt. eigenvalues --    8.01745   8.08809   8.13410   8.14201   8.14753
 Alpha virt. eigenvalues --    8.20688   8.24916   8.25888   8.29219   8.31440
 Alpha virt. eigenvalues --    8.36001   8.37339   8.51204   8.58572   8.70180
 Alpha virt. eigenvalues --    8.73638   8.74750   8.79250   8.80805   8.81289
 Alpha virt. eigenvalues --    8.88368   8.88394   8.94371   9.06467   9.29995
 Alpha virt. eigenvalues --    9.44044   9.53004   9.55944   9.56306   9.59624
 Alpha virt. eigenvalues --    9.60973   9.61409   9.63750   9.72254   9.83135
 Alpha virt. eigenvalues --    9.89820   9.96824  10.03502  10.05370  10.21833
 Alpha virt. eigenvalues --   10.24782  10.60826  10.75724  10.91064  10.96075
 Alpha virt. eigenvalues --   11.31311  11.41345  11.68834  11.72341  11.76951
 Alpha virt. eigenvalues --   11.78903  11.98758  12.14934  12.23925  12.34721
 Alpha virt. eigenvalues --   13.05437  13.09357  13.40502  14.12556  14.37382
 Alpha virt. eigenvalues --   28.59144  29.06793  48.18127 146.01787 146.56971
 Alpha virt. eigenvalues --  251.26580
          Condensed to atoms (all electrons):
               1          2          3          4          5          6
     1  C    4.970625   0.449928   0.430271   0.111220  -0.016293  -0.057825
     2  O    0.449928   8.148613   0.001345  -0.097093  -0.004968  -0.008818
     3  H    0.430271   0.001345   0.605892  -0.239052   0.007274  -0.036031
     4  C    0.111220  -0.097093  -0.239052   5.498959   0.384304   0.348366
     5  H   -0.016293  -0.004968   0.007274   0.384304   0.424761  -0.025992
     6  H   -0.057825  -0.008818  -0.036031   0.348366  -0.025992   1.059288
     7  H   -0.057825  -0.008818  -0.036031   0.348366  -0.025992  -0.350049
               7
     1  C   -0.057825
     2  O   -0.008818
     3  H   -0.036031
     4  C    0.348366
     5  H   -0.025992
     6  H   -0.350049
     7  H    1.059288
 Mulliken charges:
               1
     1  C    0.169899
     2  O   -0.480189
     3  H    0.266331
     4  C   -0.355070
     5  H    0.256907
     6  H    0.071061
     7  H    0.071061
 Sum of Mulliken charges =  -0.00000
 Mulliken charges with hydrogens summed into heavy atoms:
               1
     1  C    0.436230
     2  O   -0.480189
     4  C    0.043959
 Electronic spatial extent (au):  <R**2>=            167.3478
 Charge=             -0.0000 electrons
 Dipole moment (field-independent basis, Debye):
    X=             -2.9234    Y=             -0.2696    Z=              0.0000  Tot=              2.9358
 Quadrupole moment (field-independent basis, Debye-Ang):
   XX=            -21.2663   YY=            -17.8224   ZZ=            -18.0183
   XY=             -0.8175   XZ=             -0.0000   YZ=              0.0000
 Traceless Quadrupole moment (field-independent basis, Debye-Ang):
   XX=             -2.2307   YY=              1.2133   ZZ=              1.0174
   XY=             -0.8175   XZ=             -0.0000   YZ=              0.0000
 Octapole moment (field-independent basis, Debye-Ang**2):
  XXX=             -1.5014  YYY=              1.0273  ZZZ=             -0.0000  XYY=              0.3949
  XXY=             -1.1410  XXZ=              0.0000  XZZ=              0.1324  YZZ=              0.3269
  YYZ=              0.0000  XYZ=              0.0000
 Hexadecapole moment (field-independent basis, Debye-Ang**3):
 XXXX=           -123.6818 YYYY=            -67.9502 ZZZZ=            -23.9283 XXXY=            -23.5258
 XXXZ=             -0.0000 YYYX=            -24.6744 YYYZ=              0.0000 ZZZX=             -0.0000
 ZZZY=             -0.0000 XXYY=            -33.9800 XXZZ=            -21.6626 YYZZ=            -16.5577
 XXYZ=              0.0000 YYXZ=             -0.0000 ZZXY=             -6.7876
 N-N= 6.973487023393D+01 E-N=-4.992988179236D+02  KE= 1.532027006980D+02
 PrsmSu:  requested number of processors reduced to:  21 ShMem   1 Linda.
 No NMR shielding tensors so no spin-rotation constants.
 Leave Link  601 at Sat Apr 17 05:37:32 2021, MaxMem=   104857600 cpu:             172.3 elap:               3.8
 (Enter /s/ls4/users/knvvv/bin/g16sse/l801.exe)
 DoSCS=F DFT=T ScalE2(SS,OS)=  1.000000  1.000000
 Range of M.O.s used for correlation:     1   323
 NBasis=   324 NAE=    12 NBE=    12 NFC=     0 NFV=     0
 NROrb=    323 NOA=    12 NOB=    12 NVA=   311 NVB=   311

 **** Warning!!: The largest alpha MO coefficient is  0.27736756D+03

 Leave Link  801 at Sat Apr 17 05:37:32 2021, MaxMem=   104857600 cpu:               4.0 elap:               0.1
 (Enter /s/ls4/users/knvvv/bin/g16sse/l914.exe)
 RHF ground state
 Doing stability rather than CIS.
 Two-electron integrals replicated using symmetry.
 MDV=   104857600 DFT=T DoStab=T Mixed=T DoRPA=F DoScal=F NonHer=F
 Making orbital integer symmetry assigments:
 Orbital symmetries:
       Occupied  (A') (A') (A') (A') (A') (A') (A') (A") (A') (A')
                 (A") (A')
       Virtual   (A') (A") (A') (A") (A') (A') (A") (A') (A') (A")
                 (A') (A') (A') (A") (A') (A') (A") (A') (A") (A')
                 (A') (A") (A') (A') (A") (A') (A") (A') (A') (A")
                 (A") (A') (A') (A') (A") (A') (A") (A') (A') (A')
                 (A') (A") (A") (A') (A') (A") (A') (A') (A') (A')
                 (A") (A') (A") (A') (A") (A') (A') (A") (A') (A")
                 (A') (A") (A') (A') (A") (A') (A') (A') (A") (A")
                 (A') (A') (A") (A') (A') (A') (A") (A') (A') (A')
                 (A') (A") (A') (A') (A") (A') (A") (A") (A') (A')
                 (A') (A') (A") (A") (A') (A") (A') (A") (A') (A")
                 (A') (A") (A') (A") (A') (A') (A') (A") (A") (A')
                 (A') (A") (A') (A") (A') (A') (A") (A') (A') (A")
                 (A') (A") (A') (A') (A") (A') (A') (A") (A') (A')
                 (A") (A') (A") (A") (A') (A') (A") (A') (A') (A")
                 (A') (A") (A') (A") (A') (A') (A") (A') (A') (A')
                 (A") (A') (A') (A") (A") (A') (A') (A') (A') (A")
                 (A") (A') (A") (A") (A') (A') (A') (A") (A') (A')
                 (A') (A") (A') (A') (A') (A") (A") (A') (A") (A")
                 (A') (A") (A') (A') (A") (A') (A") (A') (A") (A')
                 (A") (A") (A') (A") (A') (A") (A') (A') (A") (A")
                 (A') (A') (A") (A') (A') (A') (A") (A') (A") (A')
                 (A") (A') (A') (A") (A') (A") (A') (A') (A") (A')
                 (A') (A') (A") (A") (A') (A") (A') (A") (A') (A')
                 (A") (A') (A") (A') (A') (A") (A") (A') (A') (A")
                 (A') (A") (A') (A') (A") (A') (A') (A") (A") (A')
                 (A') (A") (A') (A') (A") (A') (A") (A') (A') (A")
                 (A") (A') (A') (A") (A') (A") (A') (A') (A") (A')
                 (A') (A") (A') (A") (A') (A") (A') (A') (A') (A')
                 (A") (A') (A") (A') (A") (A") (A') (A') (A") (A')
                 (A") (A') (A") (A") (A') (A') (A') (A") (A') (A')
                 (A") (A') (A') (A') (A') (A') (A') (A') (A') (A')
                 (A')
    24 initial guesses have been made.
 Convergence on wavefunction:    0.001000000000000
 Davidson Disk Diagonalization:  ConvIn= 1.00D-03 SkipCon=T Conv= 1.00D-03.
 Max sub-space:  2000 roots to seek:    24 dimension of matrix:         7464
 Iteration     1 Dimension    24 NMult     0 NNew     24
 Estimated number of processors is:   18
 CISAX will form     1 AO SS matrices at one time.
 NMat=     1 NSing=     1 JSym2X= 2.
 FoFJK:  IHMeth= 1 ICntrl=       0 DoSepK=F KAlg= 0 I1Cent=           0 FoldK=F
 IRaf= 990000000 NMat=       1 IRICut=       1 DoRegI=T DoRafI=F ISym2E= 2 IDoP0=0 IntGTp=1.
 FoFCou: FMM=F IPFlag=           0 FMFlag=      100000 FMFlg1=           0
         NFxFlg=           0 DoJE=F BraDBF=F KetDBF=F FulRan=T
         wScrn=  0.000000 ICntrl=         0 IOpCl=  0 I1Cent=           0 NGrid=           0
         NMat0=    1 NMatS0=      1 NMatT0=    0 NMatD0=    1 NMtDS0=    0 NMtDT0=    0
 Integrals replicated using symmetry in FoFCou.
 CoulSu:  requested number of processors reduced to:  19 ShMem   1 Linda.
 NMat=     1 NSing=     1 JSym2X= 2.
 CoulSu:  requested number of processors reduced to:  19 ShMem   1 Linda.
 NMat=     1 NSing=     1 JSym2X= 2.
 CoulSu:  requested number of processors reduced to:  19 ShMem   1 Linda.
 NMat=     1 NSing=     1 JSym2X= 2.
 CoulSu:  requested number of processors reduced to:  19 ShMem   1 Linda.
 NMat=     1 NSing=     1 JSym2X= 2.
 CoulSu:  requested number of processors reduced to:  19 ShMem   1 Linda.
 NMat=     1 NSing=     1 JSym2X= 2.
 CoulSu:  requested number of processors reduced to:  19 ShMem   1 Linda.
 NMat=     1 NSing=     1 JSym2X= 2.
 CoulSu:  requested number of processors reduced to:  19 ShMem   1 Linda.
 NMat=     1 NSing=     1 JSym2X= 2.
 CoulSu:  requested number of processors reduced to:  19 ShMem   1 Linda.
 NMat=     1 NSing=     1 JSym2X= 2.
 CoulSu:  requested number of processors reduced to:  19 ShMem   1 Linda.
 NMat=     1 NSing=     1 JSym2X= 2.
 CoulSu:  requested number of processors reduced to:  19 ShMem   1 Linda.
 NMat=     1 NSing=     1 JSym2X= 2.
 CoulSu:  requested number of processors reduced to:  19 ShMem   1 Linda.
 NMat=     1 NSing=     1 JSym2X= 2.
 CoulSu:  requested number of processors reduced to:  19 ShMem   1 Linda.
 NMat=     1 NSing=     0 JSym2X= 2.
 CoulSu:  requested number of processors reduced to:  19 ShMem   1 Linda.
 NMat=     1 NSing=     0 JSym2X= 2.
 CoulSu:  requested number of processors reduced to:  19 ShMem   1 Linda.
 NMat=     1 NSing=     0 JSym2X= 2.
 CoulSu:  requested number of processors reduced to:  19 ShMem   1 Linda.
 NMat=     1 NSing=     0 JSym2X= 2.
 CoulSu:  requested number of processors reduced to:  19 ShMem   1 Linda.
 NMat=     1 NSing=     0 JSym2X= 2.
 CoulSu:  requested number of processors reduced to:  19 ShMem   1 Linda.
 NMat=     1 NSing=     0 JSym2X= 2.
 CoulSu:  requested number of processors reduced to:  19 ShMem   1 Linda.
 NMat=     1 NSing=     0 JSym2X= 2.
 CoulSu:  requested number of processors reduced to:  19 ShMem   1 Linda.
 NMat=     1 NSing=     0 JSym2X= 2.
 CoulSu:  requested number of processors reduced to:  19 ShMem   1 Linda.
 NMat=     1 NSing=     0 JSym2X= 2.
 CoulSu:  requested number of processors reduced to:  19 ShMem   1 Linda.
 NMat=     1 NSing=     0 JSym2X= 2.
 CoulSu:  requested number of processors reduced to:  19 ShMem   1 Linda.
 NMat=     1 NSing=     0 JSym2X= 2.
 CoulSu:  requested number of processors reduced to:  19 ShMem   1 Linda.
 NMat=     1 NSing=     0 JSym2X= 2.
 CoulSu:  requested number of processors reduced to:  19 ShMem   1 Linda.
 New state      1 was old state      4
 Excitation Energies [eV] at current iteration:
 Root      1 :     3.999896589690134
 Root      2 :     4.887651444663453
 Root      3 :     5.874249086587194
 Root      4 :     7.183654907101111
 Root      5 :     7.351324581046690
 Root      6 :     7.892542307963332
 Root      7 :     8.024519690150704
 Root      8 :     8.322976233935579
 Root      9 :     8.355967580796511
 Root     10 :     8.408919613299780
 Root     11 :     8.520502244752702
 Root     12 :     9.091852769312373
 Root     13 :     9.219280153166881
 Root     14 :     9.459749454090170
 Root     15 :     9.521234752279394
 Root     16 :     9.542689014262766
 Root     17 :     9.544726950171263
 Root     18 :     9.825604637035253
 Root     19 :     9.840434386226418
 Root     20 :     9.918731396360345
 Root     21 :     9.976900952720754
 Root     22 :    10.260713160663840
 Root     23 :    10.387200601212530
 Root     24 :    15.205543477539020
 Iteration     2 Dimension    48 NMult    24 NNew     24
 Estimated number of processors is:   18
 CISAX will form     1 AO SS matrices at one time.
 NMat=     1 NSing=     1 JSym2X= 2.
 CoulSu:  requested number of processors reduced to:  19 ShMem   1 Linda.
 NMat=     1 NSing=     1 JSym2X= 2.
 CoulSu:  requested number of processors reduced to:  19 ShMem   1 Linda.
 NMat=     1 NSing=     1 JSym2X= 2.
 CoulSu:  requested number of processors reduced to:  19 ShMem   1 Linda.
 NMat=     1 NSing=     1 JSym2X= 2.
 CoulSu:  requested number of processors reduced to:  19 ShMem   1 Linda.
 NMat=     1 NSing=     1 JSym2X= 2.
 CoulSu:  requested number of processors reduced to:  19 ShMem   1 Linda.
 NMat=     1 NSing=     1 JSym2X= 2.
 CoulSu:  requested number of processors reduced to:  19 ShMem   1 Linda.
 NMat=     1 NSing=     1 JSym2X= 2.
 CoulSu:  requested number of processors reduced to:  19 ShMem   1 Linda.
 NMat=     1 NSing=     1 JSym2X= 2.
 CoulSu:  requested number of processors reduced to:  19 ShMem   1 Linda.
 NMat=     1 NSing=     1 JSym2X= 2.
 CoulSu:  requested number of processors reduced to:  19 ShMem   1 Linda.
 NMat=     1 NSing=     1 JSym2X= 2.
 CoulSu:  requested number of processors reduced to:  19 ShMem   1 Linda.
 NMat=     1 NSing=     1 JSym2X= 2.
 CoulSu:  requested number of processors reduced to:  19 ShMem   1 Linda.
 NMat=     1 NSing=     1 JSym2X= 2.
 CoulSu:  requested number of processors reduced to:  19 ShMem   1 Linda.
 NMat=     1 NSing=     0 JSym2X= 2.
 CoulSu:  requested number of processors reduced to:  19 ShMem   1 Linda.
 NMat=     1 NSing=     0 JSym2X= 2.
 CoulSu:  requested number of processors reduced to:  19 ShMem   1 Linda.
 NMat=     1 NSing=     0 JSym2X= 2.
 CoulSu:  requested number of processors reduced to:  19 ShMem   1 Linda.
 NMat=     1 NSing=     0 JSym2X= 2.
 CoulSu:  requested number of processors reduced to:  19 ShMem   1 Linda.
 NMat=     1 NSing=     0 JSym2X= 2.
 CoulSu:  requested number of processors reduced to:  19 ShMem   1 Linda.
 NMat=     1 NSing=     0 JSym2X= 2.
 CoulSu:  requested number of processors reduced to:  19 ShMem   1 Linda.
 NMat=     1 NSing=     0 JSym2X= 2.
 CoulSu:  requested number of processors reduced to:  19 ShMem   1 Linda.
 NMat=     1 NSing=     0 JSym2X= 2.
 CoulSu:  requested number of processors reduced to:  19 ShMem   1 Linda.
 NMat=     1 NSing=     0 JSym2X= 2.
 CoulSu:  requested number of processors reduced to:  19 ShMem   1 Linda.
 NMat=     1 NSing=     0 JSym2X= 2.
 CoulSu:  requested number of processors reduced to:  19 ShMem   1 Linda.
 NMat=     1 NSing=     0 JSym2X= 2.
 CoulSu:  requested number of processors reduced to:  19 ShMem   1 Linda.
 NMat=     1 NSing=     0 JSym2X= 2.
 CoulSu:  requested number of processors reduced to:  19 ShMem   1 Linda.
 Root      1 not converged, maximum delta is    0.089712228593453
 Excitation Energies [eV] at current iteration:
 Root      1 :     3.502363314806104   Change is   -0.497533274884030
 Root      2 :     4.386706893058319   Change is   -1.487542193528875
 Root      3 :     4.545216446496892   Change is   -0.342434998166561
 Root      4 :     7.011578570781501   Change is   -0.172076336319611
 Root      5 :     7.213019534218504   Change is   -0.138305046828186
 Root      6 :     7.733631923734147   Change is   -0.158910384229185
 Root      7 :     7.911074773567879   Change is   -0.113444916582826
 Root      8 :     8.160548542002683   Change is   -0.248371071297097
 Root      9 :     8.229101728043357   Change is   -0.093874505892223
 Root     10 :     8.261250883166410   Change is   -0.094716697630101
 Root     11 :     8.384353956238499   Change is   -0.136148288514205
 Root     12 :     8.900926832072892   Change is   -0.190925937239481
 Root     13 :     9.082927368184111   Change is   -0.136352784982771
 Root     14 :     9.093585303560998   Change is   -0.366164150529173
 Root     15 :     9.271643387901721   Change is   -0.249591364377675
 Root     16 :     9.376002122999768   Change is   -0.166686891262997
 Root     17 :     9.420758098893435   Change is   -0.123968851277827
 Root     18 :     9.638369923188801   Change is   -0.280361473171543
 Root     19 :     9.706061296993743   Change is   -0.134373089232674
 Root     20 :     9.717052121996959   Change is   -0.108552515038295
 Root     21 :     9.823499398608984   Change is   -0.153401554111772
 Root     22 :    10.158472731683340   Change is   -0.102240428980501
 Root     23 :    10.216116404014420   Change is   -0.171084197198111
 Root     24 :    12.067353171099960   Change is   -3.138190306439061
 Iteration     3 Dimension    54 NMult    48 NNew      6
 Estimated number of processors is:   18
 CISAX will form     1 AO SS matrices at one time.
 NMat=     1 NSing=     1 JSym2X= 2.
 CoulSu:  requested number of processors reduced to:  19 ShMem   1 Linda.
 NMat=     1 NSing=     1 JSym2X= 2.
 CoulSu:  requested number of processors reduced to:  19 ShMem   1 Linda.
 NMat=     1 NSing=     1 JSym2X= 2.
 CoulSu:  requested number of processors reduced to:  19 ShMem   1 Linda.
 NMat=     1 NSing=     0 JSym2X= 2.
 CoulSu:  requested number of processors reduced to:  19 ShMem   1 Linda.
 NMat=     1 NSing=     0 JSym2X= 2.
 CoulSu:  requested number of processors reduced to:  19 ShMem   1 Linda.
 NMat=     1 NSing=     0 JSym2X= 2.
 CoulSu:  requested number of processors reduced to:  19 ShMem   1 Linda.
 Root      1 not converged, maximum delta is    0.013752377829217
 Excitation Energies [eV] at current iteration:
 Root      1 :     3.484031683798868   Change is   -0.018331631007236
 Root      2 :     4.293859346006553   Change is   -0.092847547051767
 Root      3 :     4.516691210601958   Change is   -0.028525235894934
 Root      4 :     6.987556966306167   Change is   -0.024021604475334
 Root      5 :     7.193097760413836   Change is   -0.019921773804668
 Root      6 :     7.900875789331202   Change is   -0.010198984236676
 Iteration     4 Dimension    60 NMult    54 NNew      6
 Estimated number of processors is:   18
 CISAX will form     1 AO SS matrices at one time.
 NMat=     1 NSing=     1 JSym2X= 2.
 CoulSu:  requested number of processors reduced to:  19 ShMem   1 Linda.
 NMat=     1 NSing=     1 JSym2X= 2.
 CoulSu:  requested number of processors reduced to:  19 ShMem   1 Linda.
 NMat=     1 NSing=     1 JSym2X= 2.
 CoulSu:  requested number of processors reduced to:  19 ShMem   1 Linda.
 NMat=     1 NSing=     0 JSym2X= 2.
 CoulSu:  requested number of processors reduced to:  19 ShMem   1 Linda.
 NMat=     1 NSing=     0 JSym2X= 2.
 CoulSu:  requested number of processors reduced to:  19 ShMem   1 Linda.
 NMat=     1 NSing=     0 JSym2X= 2.
 CoulSu:  requested number of processors reduced to:  19 ShMem   1 Linda.
 Root      1 not converged, maximum delta is    0.004367902581931
 Excitation Energies [eV] at current iteration:
 Root      1 :     3.482670793214407   Change is   -0.001360890584461
 Root      2 :     4.290223133361091   Change is   -0.003636212645461
 Root      3 :     4.515318867773246   Change is   -0.001372342828712
 Root      4 :     6.985576653817452   Change is   -0.001980312488715
 Root      5 :     7.191961518481602   Change is   -0.001136241932234
 Root      6 :     7.900338229388080   Change is   -0.000537559943123
 Iteration     5 Dimension    66 NMult    60 NNew      6
 Estimated number of processors is:   18
 CISAX will form     1 AO SS matrices at one time.
 NMat=     1 NSing=     1 JSym2X= 2.
 CoulSu:  requested number of processors reduced to:  19 ShMem   1 Linda.
 NMat=     1 NSing=     1 JSym2X= 2.
 CoulSu:  requested number of processors reduced to:  19 ShMem   1 Linda.
 NMat=     1 NSing=     1 JSym2X= 2.
 CoulSu:  requested number of processors reduced to:  19 ShMem   1 Linda.
 NMat=     1 NSing=     0 JSym2X= 2.
 CoulSu:  requested number of processors reduced to:  19 ShMem   1 Linda.
 NMat=     1 NSing=     0 JSym2X= 2.
 CoulSu:  requested number of processors reduced to:  19 ShMem   1 Linda.
 NMat=     1 NSing=     0 JSym2X= 2.
 CoulSu:  requested number of processors reduced to:  19 ShMem   1 Linda.
 Root      1 has converged.
 Excitation Energies [eV] at current iteration:
 Root      1 :     3.482630446174131   Change is   -0.000040347040276
 Root      2 :     4.290050392472799   Change is   -0.000172740888292
 Root      3 :     4.515215832226380   Change is   -0.000103035546866
 Root      4 :     6.985394738643012   Change is   -0.000181915174440
 Root      5 :     7.191862915130735   Change is   -0.000098603350867
 Root      6 :     7.900239141483697   Change is   -0.000099087904383
 Convergence achieved on expansion vectors.
 ***********************************************************************
 Stability analysis using <AA,BB:AA,BB> singles matrix:
 ***********************************************************************
 1PDM for each excited state written to RWF  633
 Ground to excited state transition densities written to RWF  633

 Eigenvectors of the stability matrix:
 
 Eigenvector   1:      Triplet-A"   Eigenvalue= 0.1279843  <S**2>=2.000
      12 -> 14         0.68697
 The wavefunction is stable under the perturbations considered.
 Leave Link  914 at Sat Apr 17 05:50:01 2021, MaxMem=   104857600 cpu:           29072.1 elap:             749.2
 (Enter /s/ls4/users/knvvv/bin/g16sse/l508.exe)
 The wavefunction is already stable.
 Leave Link  508 at Sat Apr 17 05:50:01 2021, MaxMem=   104857600 cpu:               2.2 elap:               0.1
 (Enter /s/ls4/users/knvvv/bin/g16sse/l601.exe)
 Copying SCF densities to generalized density rwf, IOpCl= 0 IROHF=0.

 **********************************************************************

            Population analysis using the SCF density.

 **********************************************************************

 Orbital symmetries:
       Occupied  (A') (A') (A') (A') (A') (A') (A') (A") (A') (A')
                 (A") (A')
       Virtual   (A') (A") (A') (A") (A') (A') (A") (A') (A') (A")
                 (A') (A') (A') (A") (A') (A') (A") (A') (A") (A')
                 (A') (A") (A') (A') (A") (A') (A") (A') (A') (A")
                 (A") (A') (A') (A') (A") (A') (A") (A') (A') (A')
                 (A') (A") (A") (A') (A') (A") (A') (A') (A') (A')
                 (A") (A') (A") (A') (A") (A') (A') (A") (A') (A")
                 (A') (A") (A') (A') (A") (A') (A') (A') (A") (A")
                 (A') (A') (A") (A') (A') (A') (A") (A') (A') (A')
                 (A') (A") (A') (A') (A") (A') (A") (A") (A') (A')
                 (A') (A') (A") (A") (A') (A") (A') (A") (A') (A")
                 (A') (A") (A') (A") (A') (A') (A') (A") (A") (A')
                 (A') (A") (A') (A") (A') (A') (A") (A') (A') (A")
                 (A') (A") (A') (A') (A") (A') (A') (A") (A') (A')
                 (A") (A') (A") (A") (A') (A') (A") (A') (A') (A")
                 (A') (A") (A') (A") (A') (A') (A") (A') (A') (A')
                 (A") (A') (A') (A") (A") (A') (A') (A') (A') (A")
                 (A") (A') (A") (A") (A') (A') (A') (A") (A') (A')
                 (A') (A") (A') (A') (A') (A") (A") (A') (A") (A")
                 (A') (A") (A') (A') (A") (A') (A") (A') (A") (A')
                 (A") (A") (A') (A") (A') (A") (A') (A') (A") (A")
                 (A') (A') (A") (A') (A') (A') (A") (A') (A") (A')
                 (A") (A') (A') (A") (A') (A") (A') (A') (A") (A')
                 (A') (A') (A") (A") (A') (A") (A') (A") (A') (A')
                 (A") (A') (A") (A') (A') (A") (A") (A') (A') (A")
                 (A') (A") (A') (A') (A") (A') (A') (A") (A") (A')
                 (A') (A") (A') (A') (A") (A') (A") (A') (A') (A")
                 (A") (A') (A') (A") (A') (A") (A') (A') (A") (A')
                 (A') (A") (A') (A") (A') (A") (A') (A') (A') (A')
                 (A") (A') (A") (A') (A") (A") (A') (A') (A") (A')
                 (A") (A') (A") (A") (A') (A') (A') (A") (A') (A')
                 (A") (A') (A') (A') (A') (A') (A') (A') (A') (A')
                 (A')
 The electronic state is 1-A'.
 Alpha  occ. eigenvalues --  -19.63246 -10.64001 -10.55328  -1.17652  -0.85559
 Alpha  occ. eigenvalues --   -0.67247  -0.56484  -0.52108  -0.51926  -0.47091
 Alpha  occ. eigenvalues --   -0.43836  -0.33757
 Alpha virt. eigenvalues --    0.00704   0.00983   0.02960   0.05028   0.05149
 Alpha virt. eigenvalues --    0.07503   0.09283   0.09705   0.09787   0.12925
 Alpha virt. eigenvalues --    0.14231   0.16312   0.17032   0.18292   0.19513
 Alpha virt. eigenvalues --    0.20170   0.20777   0.21930   0.23416   0.25063
 Alpha virt. eigenvalues --    0.26569   0.27230   0.27980   0.28729   0.29353
 Alpha virt. eigenvalues --    0.29641   0.30892   0.31418   0.32625   0.33354
 Alpha virt. eigenvalues --    0.34124   0.34155   0.34815   0.36077   0.36594
 Alpha virt. eigenvalues --    0.37499   0.40884   0.42984   0.43607   0.46647
 Alpha virt. eigenvalues --    0.48864   0.49739   0.50518   0.50853   0.52767
 Alpha virt. eigenvalues --    0.54313   0.54842   0.57067   0.58874   0.62672
 Alpha virt. eigenvalues --    0.63316   0.65930   0.66827   0.68396   0.68915
 Alpha virt. eigenvalues --    0.70532   0.76272   0.82469   0.83908   0.84108
 Alpha virt. eigenvalues --    0.85639   0.87045   0.87513   0.89716   0.91619
 Alpha virt. eigenvalues --    0.94186   0.95436   0.97848   0.98056   1.01384
 Alpha virt. eigenvalues --    1.04769   1.09730   1.12322   1.12417   1.15764
 Alpha virt. eigenvalues --    1.16067   1.19023   1.20419   1.24279   1.34156
 Alpha virt. eigenvalues --    1.35843   1.38635   1.40162   1.44776   1.45349
 Alpha virt. eigenvalues --    1.47211   1.53356   1.55851   1.56473   1.68390
 Alpha virt. eigenvalues --    1.69720   1.73102   1.76478   1.80120   1.85082
 Alpha virt. eigenvalues --    1.86807   1.91619   1.92283   1.94790   2.01418
 Alpha virt. eigenvalues --    2.01591   2.02207   2.02855   2.07829   2.10424
 Alpha virt. eigenvalues --    2.11064   2.12726   2.15098   2.16975   2.17296
 Alpha virt. eigenvalues --    2.23316   2.23823   2.27028   2.29704   2.30884
 Alpha virt. eigenvalues --    2.35635   2.41889   2.42620   2.45599   2.51394
 Alpha virt. eigenvalues --    2.54462   2.56702   2.59105   2.61947   2.63518
 Alpha virt. eigenvalues --    2.72961   2.76268   2.76698   2.79684   2.82838
 Alpha virt. eigenvalues --    2.83359   2.88339   2.90387   2.92191   2.97949
 Alpha virt. eigenvalues --    2.99113   3.04220   3.05546   3.11543   3.16422
 Alpha virt. eigenvalues --    3.20323   3.20450   3.21899   3.27371   3.29795
 Alpha virt. eigenvalues --    3.35570   3.39073   3.42235   3.50677   3.54275
 Alpha virt. eigenvalues --    3.54809   3.61164   3.72324   3.73621   3.84993
 Alpha virt. eigenvalues --    3.85997   3.87475   3.89865   3.93977   4.03350
 Alpha virt. eigenvalues --    4.12685   4.14818   4.20649   4.25889   4.34489
 Alpha virt. eigenvalues --    4.42162   4.45849   4.56647   4.58157   4.78215
 Alpha virt. eigenvalues --    4.86430   4.90096   4.97838   4.98693   5.15589
 Alpha virt. eigenvalues --    5.16384   5.20264   5.33951   5.34072   5.38466
 Alpha virt. eigenvalues --    5.42190   5.46478   5.54587   5.63245   5.63678
 Alpha virt. eigenvalues --    5.67357   5.68870   5.70310   5.73853   5.75663
 Alpha virt. eigenvalues --    5.75921   5.77398   5.79543   5.88483   5.90034
 Alpha virt. eigenvalues --    5.95641   5.95746   5.97518   6.01856   6.07250
 Alpha virt. eigenvalues --    6.07968   6.09185   6.14365   6.16535   6.22012
 Alpha virt. eigenvalues --    6.25999   6.27977   6.36538   6.42449   6.44598
 Alpha virt. eigenvalues --    6.47664   6.50305   6.56744   6.57555   6.67752
 Alpha virt. eigenvalues --    6.69323   6.70869   6.75426   6.89346   6.94377
 Alpha virt. eigenvalues --    7.03705   7.08939   7.15383   7.19207   7.20808
 Alpha virt. eigenvalues --    7.24180   7.26955   7.35907   7.37920   7.39006
 Alpha virt. eigenvalues --    7.41625   7.44785   7.45567   7.50642   7.54382
 Alpha virt. eigenvalues --    7.60548   7.63347   7.63961   7.66486   7.73313
 Alpha virt. eigenvalues --    7.73536   7.74979   7.83608   7.91928   7.92075
 Alpha virt. eigenvalues --    8.01745   8.08809   8.13410   8.14201   8.14753
 Alpha virt. eigenvalues --    8.20688   8.24916   8.25888   8.29219   8.31440
 Alpha virt. eigenvalues --    8.36001   8.37339   8.51204   8.58572   8.70180
 Alpha virt. eigenvalues --    8.73638   8.74750   8.79250   8.80805   8.81289
 Alpha virt. eigenvalues --    8.88368   8.88394   8.94371   9.06467   9.29995
 Alpha virt. eigenvalues --    9.44044   9.53004   9.55944   9.56306   9.59624
 Alpha virt. eigenvalues --    9.60973   9.61409   9.63750   9.72254   9.83135
 Alpha virt. eigenvalues --    9.89820   9.96824  10.03502  10.05370  10.21833
 Alpha virt. eigenvalues --   10.24782  10.60826  10.75724  10.91064  10.96075
 Alpha virt. eigenvalues --   11.31311  11.41345  11.68834  11.72341  11.76951
 Alpha virt. eigenvalues --   11.78903  11.98758  12.14934  12.23925  12.34721
 Alpha virt. eigenvalues --   13.05437  13.09357  13.40502  14.12556  14.37382
 Alpha virt. eigenvalues --   28.59144  29.06793  48.18127 146.01787 146.56971
 Alpha virt. eigenvalues --  251.26580
          Condensed to atoms (all electrons):
               1          2          3          4          5          6
     1  C    4.970625   0.449928   0.430271   0.111220  -0.016293  -0.057825
     2  O    0.449928   8.148613   0.001345  -0.097093  -0.004968  -0.008818
     3  H    0.430271   0.001345   0.605892  -0.239052   0.007274  -0.036031
     4  C    0.111220  -0.097093  -0.239052   5.498959   0.384304   0.348366
     5  H   -0.016293  -0.004968   0.007274   0.384304   0.424761  -0.025992
     6  H   -0.057825  -0.008818  -0.036031   0.348366  -0.025992   1.059288
     7  H   -0.057825  -0.008818  -0.036031   0.348366  -0.025992  -0.350049
               7
     1  C   -0.057825
     2  O   -0.008818
     3  H   -0.036031
     4  C    0.348366
     5  H   -0.025992
     6  H   -0.350049
     7  H    1.059288
 Mulliken charges:
               1
     1  C    0.169899
     2  O   -0.480189
     3  H    0.266331
     4  C   -0.355070
     5  H    0.256907
     6  H    0.071061
     7  H    0.071061
 Sum of Mulliken charges =  -0.00000
 Mulliken charges with hydrogens summed into heavy atoms:
               1
     1  C    0.436230
     2  O   -0.480189
     4  C    0.043959
 Electronic spatial extent (au):  <R**2>=            167.3478
 Charge=             -0.0000 electrons
 Dipole moment (field-independent basis, Debye):
    X=             -2.9234    Y=             -0.2696    Z=              0.0000  Tot=              2.9358
 Quadrupole moment (field-independent basis, Debye-Ang):
   XX=            -21.2663   YY=            -17.8224   ZZ=            -18.0183
   XY=             -0.8175   XZ=             -0.0000   YZ=              0.0000
 Traceless Quadrupole moment (field-independent basis, Debye-Ang):
   XX=             -2.2307   YY=              1.2133   ZZ=              1.0174
   XY=             -0.8175   XZ=             -0.0000   YZ=              0.0000
 Octapole moment (field-independent basis, Debye-Ang**2):
  XXX=             -1.5014  YYY=              1.0273  ZZZ=             -0.0000  XYY=              0.3949
  XXY=             -1.1410  XXZ=              0.0000  XZZ=              0.1324  YZZ=              0.3269
  YYZ=              0.0000  XYZ=              0.0000
 Hexadecapole moment (field-independent basis, Debye-Ang**3):
 XXXX=           -123.6818 YYYY=            -67.9502 ZZZZ=            -23.9283 XXXY=            -23.5258
 XXXZ=             -0.0000 YYYX=            -24.6744 YYYZ=              0.0000 ZZZX=             -0.0000
 ZZZY=             -0.0000 XXYY=            -33.9800 XXZZ=            -21.6626 YYZZ=            -16.5577
 XXYZ=              0.0000 YYXZ=             -0.0000 ZZXY=             -6.7876
 N-N= 6.973487023393D+01 E-N=-4.992988179236D+02  KE= 1.532027006980D+02
 PrsmSu:  requested number of processors reduced to:  21 ShMem   1 Linda.
 No NMR shielding tensors so no spin-rotation constants.
 Leave Link  601 at Sat Apr 17 05:50:05 2021, MaxMem=   104857600 cpu:             184.1 elap:               4.1
 (Enter /s/ls4/users/knvvv/bin/g16sse/l9999.exe)

 Test job not archived.
 1\1\GINC-N178\Stability\RM062X\Gen\C2H4O1\KNVVV\17-Apr-2021\0\\#P M062
 X/GEN Integral=UltraFineGrid SCF=NoSymm Stable=(RExt, Opt) IOp(1/33=1)
 \\Database calculations.\\0,1\C,0,0.,0.,0.\O,0,0.,0.,1.2088022408\H,0,
 0.9568435855,0.,-0.5561624232\C,0,-1.2407878238,0.,-0.8473271186\H,0,-
 2.1294463658,0.,-0.2206973452\H,0,-1.2371617502,0.8784403229,-1.496548
 8231\H,0,-1.2371617502,-0.8784403229,-1.4965488231\\Version=ES64L-G16R
 evA.03\State=1-A'\HF=-153.8344932\RMSD=5.086e-09\Dipole=-0.1902126,0.,
 -1.139278\Quadrupole=0.7992344,0.7564138,-1.5556482,0.,-0.7887416,0.\P
 G=CS [SG(C2H2O1),X(H2)]\\@


 ON A CLEAR DISK YOU CAN SEEK FOREVER.
 Job cpu time:       0 days  8 hours 40 minutes 43.2 seconds.
 Elapsed time:       0 days  0 hours 13 minutes 29.6 seconds.
 File lengths (MBytes):  RWF=    210 Int=      0 D2E=      0 Chk=     13 Scr=      1
 Normal termination of Gaussian 16 at Sat Apr 17 05:50:06 2021.
