 Entering Gaussian System, Link 0=/s/ls4/users/knvvv/bin/g16sse/g16
 Input=data/database/M062X--def2-QZVPPD--247_so_W4-11.gjf
 Output=data/database/M062X--def2-QZVPPD--247_so_W4-11.log
 Initial command:
 /s/ls4/users/knvvv/bin/g16sse/l1.exe "/s/ls4/users/knvvv/bin/scratch/Gau-30484.inp" -scrdir="/s/ls4/users/knvvv/bin/scratch/"
 Entering Link 1 = /s/ls4/users/knvvv/bin/g16sse/l1.exe PID=     30485.
  
 Copyright (c) 1988,1990,1992,1993,1995,1998,2003,2009,2016,
            Gaussian, Inc.  All Rights Reserved.
  
 This is part of the Gaussian(R) 16 program.  It is based on
 the Gaussian(R) 09 system (copyright 2009, Gaussian, Inc.),
 the Gaussian(R) 03 system (copyright 2003, Gaussian, Inc.),
 the Gaussian(R) 98 system (copyright 1998, Gaussian, Inc.),
 the Gaussian(R) 94 system (copyright 1995, Gaussian, Inc.),
 the Gaussian 92(TM) system (copyright 1992, Gaussian, Inc.),
 the Gaussian 90(TM) system (copyright 1990, Gaussian, Inc.),
 the Gaussian 88(TM) system (copyright 1988, Gaussian, Inc.),
 the Gaussian 86(TM) system (copyright 1986, Carnegie Mellon
 University), and the Gaussian 82(TM) system (copyright 1983,
 Carnegie Mellon University). Gaussian is a federally registered
 trademark of Gaussian, Inc.
  
 This software contains proprietary and confidential information,
 including trade secrets, belonging to Gaussian, Inc.
  
 This software is provided under written license and may be
 used, copied, transmitted, or stored only in accord with that
 written license.
  
 The following legend is applicable only to US Government
 contracts under FAR:
  
                    RESTRICTED RIGHTS LEGEND
  
 Use, reproduction and disclosure by the US Government is
 subject to restrictions as set forth in subparagraphs (a)
 and (c) of the Commercial Computer Software - Restricted
 Rights clause in FAR 52.227-19.
  
 Gaussian, Inc.
 340 Quinnipiac St., Bldg. 40, Wallingford CT 06492
  
  
 ---------------------------------------------------------------
 Warning -- This program may not be used in any manner that
 competes with the business of Gaussian, Inc. or will provide
 assistance to any competitor of Gaussian, Inc.  The licensee
 of this program is prohibited from giving any competitor of
 Gaussian, Inc. access to this program.  By using this program,
 the user acknowledges that Gaussian, Inc. is engaged in the
 business of creating and licensing software in the field of
 computational chemistry and represents and warrants to the
 licensee that it is not a competitor of Gaussian, Inc. and that
 it will not use this program in any manner prohibited above.
 ---------------------------------------------------------------
  

 Cite this work as:
 Gaussian 16, Revision A.03,
 M. J. Frisch, G. W. Trucks, H. B. Schlegel, G. E. Scuseria, 
 M. A. Robb, J. R. Cheeseman, G. Scalmani, V. Barone, 
 G. A. Petersson, H. Nakatsuji, X. Li, M. Caricato, A. V. Marenich, 
 J. Bloino, B. G. Janesko, R. Gomperts, B. Mennucci, H. P. Hratchian, 
 J. V. Ortiz, A. F. Izmaylov, J. L. Sonnenberg, D. Williams-Young, 
 F. Ding, F. Lipparini, F. Egidi, J. Goings, B. Peng, A. Petrone, 
 T. Henderson, D. Ranasinghe, V. G. Zakrzewski, J. Gao, N. Rega, 
 G. Zheng, W. Liang, M. Hada, M. Ehara, K. Toyota, R. Fukuda, 
 J. Hasegawa, M. Ishida, T. Nakajima, Y. Honda, O. Kitao, H. Nakai, 
 T. Vreven, K. Throssell, J. A. Montgomery, Jr., J. E. Peralta, 
 F. Ogliaro, M. J. Bearpark, J. J. Heyd, E. N. Brothers, K. N. Kudin, 
 V. N. Staroverov, T. A. Keith, R. Kobayashi, J. Normand, 
 K. Raghavachari, A. P. Rendell, J. C. Burant, S. S. Iyengar, 
 J. Tomasi, M. Cossi, J. M. Millam, M. Klene, C. Adamo, R. Cammi, 
 J. W. Ochterski, R. L. Martin, K. Morokuma, O. Farkas, 
 J. B. Foresman, and D. J. Fox, Gaussian, Inc., Wallingford CT, 2016.
 
 ******************************************
 Gaussian 16:  ES64L-G16RevA.03 25-Dec-2016
                17-Apr-2021 
 ******************************************
 %RWF=temp5_46910,70GB
 %nprocshared=48
 Will use up to   48 processors via shared memory.
 Default route: MaxDisk=80GB
 ----------------------------------------------------------------------
 #P M062X/GEN Integral=UltraFineGrid SCF=NoSymm Stable=(RExt, Opt) IOp(
 1/33=1)
 ----------------------------------------------------------------------
 1/33=1,38=1,172=1/1;
 2/12=2,17=6,18=5,40=1/2;
 3/5=7,11=2,25=1,30=1,74=-55,75=-5/1,2,3;
 4/9=2/1;
 5/5=2,38=5/2;
 6/7=2,8=2,9=2,10=2,28=1/1;
 8/6=1,10=90,11=11/1;
 9/8=-3,42=1,46=1/14;
 5/5=2,8=3,17=40,38=5/8(-2);
 6/7=2,8=2,9=2,10=2,28=1/1;
 99/5=1,9=1/99;
 Leave Link    1 at Sat Apr 17 21:01:09 2021, MaxMem=           0 cpu:               6.9 elap:               0.2
 (Enter /s/ls4/users/knvvv/bin/g16sse/l101.exe)
 ONIOM data not found on unit 2.
 ----------------------
 Database calculations.
 ----------------------
 TstMul:  ICh=     0
 TstMul:  Mul=     3
 TstMul:  ICh=     0
 TstMul:  Mul=     3
 Symbolic Z-matrix:
 Charge =  0 Multiplicity = 3
 S                     0.        0.        0. 
 O                     0.        0.        1.48621 
 
 RdStrC is calling ZToCFu for IStruc=1 NZ=     2.
 PrtBox:  NBox=     1 Levels=  1 BoxLen=    8.00 SMaxX=        2.81
          Shift=            0.000000            0.000000            0.000000
 Box      1 Number                   0 centers from      1 to      2:
 After GenITR:
 ITRead=  0  0
 MicOpt= -1 -1
 ITRead=  0  0
 MicOpt= -1 -1
 NAtoms=      2 NQM=        2 NQMF=       0 NMMI=      0 NMMIF=      0
                NMic=       0 NMicF=      0.
                    Isotopes and Nuclear Properties:
 (Nuclear quadrupole moments (NQMom) in fm**2, nuclear magnetic moments (NMagM)
  in nuclear magnetons)

  Atom         1           2
 IAtWgt=          32          16
 AtmWgt=  31.9720718  15.9949146
 NucSpn=           0           0
 AtZEff=  -0.0000000  -0.0000000
 NQMom=    0.0000000   0.0000000
 NMagM=    0.0000000   0.0000000
 AtZNuc=  16.0000000   8.0000000
 No MM parameters found.
 Leave Link  101 at Sat Apr 17 21:01:10 2021, MaxMem=   104857600 cpu:               6.9 elap:               0.2
 (Enter /s/ls4/users/knvvv/bin/g16sse/l202.exe)
                          Input orientation:                          
 ---------------------------------------------------------------------
 Center     Atomic      Atomic             Coordinates (Angstroms)
 Number     Number       Type             X           Y           Z
 ---------------------------------------------------------------------
      1         16           0        0.000000    0.000000    0.000000
      2          8           0        0.000000    0.000000    1.486215
 ---------------------------------------------------------------------
 Stoichiometry    OS(3)
 Framework group  C*V[C*(OS)]
 Deg. of freedom     1
 Full point group                 C*V     NOp   4
 Largest Abelian subgroup         C2V     NOp   4
 Largest concise Abelian subgroup C1      NOp   1
                         Standard orientation:                         
 ---------------------------------------------------------------------
 Center     Atomic      Atomic             Coordinates (Angstroms)
 Number     Number       Type             X           Y           Z
 ---------------------------------------------------------------------
      1         16           0        0.000000    0.000000    0.495405
      2          8           0        0.000000    0.000000   -0.990810
 ---------------------------------------------------------------------
 Rotational constants (GHZ):           0.0000000          21.4607013          21.4607013
 Leave Link  202 at Sat Apr 17 21:01:10 2021, MaxMem=   104857600 cpu:               4.6 elap:               0.1
 (Enter /s/ls4/users/knvvv/bin/g16sse/l301.exe)
 General basis read from cards:  (5D, 7F)
 Centers:       2
 S 8 1.00
     Exponent=  1.1650646908D+05 Coefficients=  4.0383857939D-05
     Exponent=  1.7504349724D+04 Coefficients=  3.1255139004D-04
     Exponent=  3.9934513230D+03 Coefficients=  1.6341473495D-03
     Exponent=  1.1330063186D+03 Coefficients=  6.8283224757D-03
     Exponent=  3.6999569594D+02 Coefficients=  2.4124410221D-02
     Exponent=  1.3362074349D+02 Coefficients=  7.2730206154D-02
     Exponent=  5.2035643649D+01 Coefficients=  1.7934429892D-01
     Exponent=  2.1461939313D+01 Coefficients=  3.3059588895D-01
 S 2 1.00
     Exponent=  8.9835051252D+01 Coefficients=  9.6468652996D-02
     Exponent=  2.6428010844D+01 Coefficients=  9.4117481120D-01
 S 1 1.00
     Exponent=  9.2822824649D+00 Coefficients=  1.0000000000D+00
 S 1 1.00
     Exponent=  4.0947728533D+00 Coefficients=  1.0000000000D+00
 S 1 1.00
     Exponent=  1.3255349078D+00 Coefficients=  1.0000000000D+00
 S 1 1.00
     Exponent=  5.1877230787D-01 Coefficients=  1.0000000000D+00
 S 1 1.00
     Exponent=  1.9772676454D-01 Coefficients=  1.0000000000D+00
 S 1 1.00
     Exponent=  6.9638535104D-02 Coefficients=  1.0000000000D+00
 P 5 1.00
     Exponent=  1.9115255810D+02 Coefficients=  2.5115697705D-03
     Exponent=  4.5233356739D+01 Coefficients=  2.0039240864D-02
     Exponent=  1.4353465922D+01 Coefficients=  9.3609064762D-02
     Exponent=  5.2422371832D+00 Coefficients=  3.0618127124D-01
     Exponent=  2.0792418599D+00 Coefficients=  6.7810501439D-01
 P 1 1.00
     Exponent=  8.4282371424D-01 Coefficients=  1.0000000000D+00
 P 1 1.00
     Exponent=  3.3617694891D-01 Coefficients=  1.0000000000D+00
 P 1 1.00
     Exponent=  1.2863997974D-01 Coefficients=  1.0000000000D+00
 P 1 1.00
     Exponent=  4.3598162776D-02 Coefficients=  1.0000000000D+00
 D 1 1.00
     Exponent=  3.7750000000D+00 Coefficients=  1.0000000000D+00
 D 1 1.00
     Exponent=  1.3000000000D+00 Coefficients=  1.0000000000D+00
 D 1 1.00
     Exponent=  4.4400000000D-01 Coefficients=  1.0000000000D+00
 D 1 1.00
     Exponent=  1.2546378695D-01 Coefficients=  1.0000000000D+00
 F 1 1.00
     Exponent=  2.6660000000D+00 Coefficients=  1.0000000000D+00
 F 1 1.00
     Exponent=  8.5900000000D-01 Coefficients=  1.0000000000D+00
 G 1 1.00
     Exponent=  1.8460000000D+00 Coefficients=  1.0000000000D+00
 ****
 Centers:       1
 S 10 1.00
     Exponent=  1.2734109023D+06 Coefficients=  1.1767088246D-05
     Exponent=  1.9069783007D+05 Coefficients=  9.1478610166D-05
     Exponent=  4.3397885330D+04 Coefficients=  4.8090078640D-04
     Exponent=  1.2291809677D+04 Coefficients=  2.0257193592D-03
     Exponent=  4.0097420824D+03 Coefficients=  7.3190096406D-03
     Exponent=  1.4473531030D+03 Coefficients=  2.3300499900D-02
     Exponent=  5.6430102913D+02 Coefficients=  6.5386213610D-02
     Exponent=  2.3374506243D+02 Coefficients=  1.5614449910D-01
     Exponent=  1.0156402814D+02 Coefficients=  2.9318563787D-01
     Exponent=  4.5805907187D+01 Coefficients=  3.6287914289D-01
 S 3 1.00
     Exponent=  3.9427281503D+02 Coefficients=  1.8753305081D-02
     Exponent=  1.2172249591D+02 Coefficients=  1.6870726663D-01
     Exponent=  4.6754125963D+01 Coefficients=  6.3806830653D-01
 S 1 1.00
     Exponent=  2.0923008254D+01 Coefficients=  1.0000000000D+00
 S 1 1.00
     Exponent=  8.2685567800D+00 Coefficients=  1.0000000000D+00
 S 1 1.00
     Exponent=  3.8629345671D+00 Coefficients=  1.0000000000D+00
 S 1 1.00
     Exponent=  1.7794684781D+00 Coefficients=  1.0000000000D+00
 S 1 1.00
     Exponent=  6.1064260103D-01 Coefficients=  1.0000000000D+00
 S 1 1.00
     Exponent=  2.7412269445D-01 Coefficients=  1.0000000000D+00
 S 1 1.00
     Exponent=  1.1325939107D-01 Coefficients=  1.0000000000D+00
 S 1 1.00
     Exponent=  4.4392624881D-02 Coefficients=  1.0000000000D+00
 P 8 1.00
     Exponent=  2.1898930459D+03 Coefficients=  2.3912552864D-04
     Exponent=  5.1894596592D+02 Coefficients=  2.0772032158D-03
     Exponent=  1.6819560151D+02 Coefficients=  1.1242420571D-02
     Exponent=  6.3745282788D+01 Coefficients=  4.4069933941D-02
     Exponent=  2.6597033077D+01 Coefficients=  1.2918778608D-01
     Exponent=  1.1774251449D+01 Coefficients=  2.6910820167D-01
     Exponent=  5.3534379024D+00 Coefficients=  3.7855928620D-01
     Exponent=  2.4701911802D+00 Coefficients=  2.9692134655D-01
 P 2 1.00
     Exponent=  8.2120288349D+01 Coefficients= -3.9420318847D-02
     Exponent=  4.9523532869D+00 Coefficients=  6.4048403090D-01
 P 1 1.00
     Exponent=  1.0828262029D+00 Coefficients=  1.0000000000D+00
 P 1 1.00
     Exponent=  4.9271277356D-01 Coefficients=  1.0000000000D+00
 P 1 1.00
     Exponent=  2.0483450942D-01 Coefficients=  1.0000000000D+00
 P 1 1.00
     Exponent=  8.0743615716D-02 Coefficients=  1.0000000000D+00
 P 1 1.00
     Exponent=  2.5661157833D-02 Coefficients=  1.0000000000D+00
 D 1 1.00
     Exponent=  4.1590000000D+00 Coefficients=  1.0000000000D+00
 D 1 1.00
     Exponent=  1.0190000000D+00 Coefficients=  1.0000000000D+00
 D 1 1.00
     Exponent=  4.6400000000D-01 Coefficients=  1.0000000000D+00
 D 1 1.00
     Exponent=  1.9400000000D-01 Coefficients=  1.0000000000D+00
 D 1 1.00
     Exponent=  6.7889829366D-02 Coefficients=  1.0000000000D+00
 F 1 1.00
     Exponent=  8.6900000000D-01 Coefficients=  1.0000000000D+00
 F 1 1.00
     Exponent=  3.3500000000D-01 Coefficients=  1.0000000000D+00
 G 1 1.00
     Exponent=  6.8300000000D-01 Coefficients=  1.0000000000D+00
 ****
 Ernie: Thresh=  0.10000D-02 Tol=  0.10000D-05 Strict=F.
 There are    81 symmetry adapted cartesian basis functions of A1  symmetry.
 There are    19 symmetry adapted cartesian basis functions of A2  symmetry.
 There are    39 symmetry adapted cartesian basis functions of B1  symmetry.
 There are    39 symmetry adapted cartesian basis functions of B2  symmetry.
 There are    62 symmetry adapted basis functions of A1  symmetry.
 There are    17 symmetry adapted basis functions of A2  symmetry.
 There are    33 symmetry adapted basis functions of B1  symmetry.
 There are    33 symmetry adapted basis functions of B2  symmetry.
   145 basis functions,   233 primitive gaussians,   178 cartesian basis functions
    13 alpha electrons       11 beta electrons
       nuclear repulsion energy        45.5753060672 Hartrees.
 IExCor= 4336 DFT=T Ex+Corr=M062X ExCW=0 ScaHFX=  0.540000
 ScaDFX=  1.000000  1.000000  1.000000  1.000000 ScalE2=  1.000000  1.000000
 IRadAn=      5 IRanWt=     -1 IRanGd=            0 ICorTp=0 IEmpDi=  4
 NAtoms=    2 NActive=    2 NUniq=    2 SFac= 1.00D+00 NAtFMM=   60 NAOKFM=F Big=F
 Integral buffers will be    131072 words long.
 Raffenetti 2 integral format.
 Two-electron integral symmetry is turned on.
 Leave Link  301 at Sat Apr 17 21:01:10 2021, MaxMem=   104857600 cpu:               7.7 elap:               0.2
 (Enter /s/ls4/users/knvvv/bin/g16sse/l302.exe)
 NPDir=0 NMtPBC=     1 NCelOv=     1 NCel=       1 NClECP=     1 NCelD=      1
         NCelK=      1 NCelE2=     1 NClLst=     1 CellRange=     0.0.
 One-electron integrals computed using PRISM.
 One-electron integral symmetry used in STVInt
 PrsmSu:  requested number of processors reduced to:   4 ShMem   1 Linda.
 PrsmSu:  requested number of processors reduced to:  21 ShMem   1 Linda.
 NBasis=   145 RedAO= T EigKep=  8.79D-05  NBF=    62    17    33    33
 NBsUse=   145 1.00D-06 EigRej= -1.00D+00 NBFU=    62    17    33    33
 Precomputing XC quadrature grid using
 IXCGrd= 4 IRadAn=           5 IRanWt=          -1 IRanGd=           0 AccXCQ= 0.00D+00.
 Generated NRdTot=       0 NPtTot=           0 NUsed=           0 NTot=          32
 NSgBfM=   176   176   176   176   176 MxSgAt=     2 MxSgA2=     2.
 Leave Link  302 at Sat Apr 17 21:01:14 2021, MaxMem=   104857600 cpu:             174.1 elap:               3.8
 (Enter /s/ls4/users/knvvv/bin/g16sse/l303.exe)
 DipDrv:  MaxL=1.
 Leave Link  303 at Sat Apr 17 21:01:14 2021, MaxMem=   104857600 cpu:              30.6 elap:               0.7
 (Enter /s/ls4/users/knvvv/bin/g16sse/l401.exe)
 SCF N**3 symmetry information disabled.
 ExpMin= 2.57D-02 ExpMax= 1.27D+06 ExpMxC= 1.45D+03 IAcc=3 IRadAn=         5 AccDes= 0.00D+00
 Harris functional with IExCor= 1009 and IRadAn=       5 diagonalized for initial guess.
 HarFok:  IExCor= 1009 AccDes= 0.00D+00 IRadAn=         5 IDoV= 1 UseB2=F ITyADJ=14
 ICtDFT=  3500011 ScaDFX=  1.000000  1.000000  1.000000  1.000000
 FoFCou: FMM=F IPFlag=           0 FMFlag=      100000 FMFlg1=           0
         NFxFlg=           0 DoJE=T BraDBF=F KetDBF=T FulRan=T
         wScrn=  0.000000 ICntrl=       500 IOpCl=  0 I1Cent=   200000004 NGrid=           0
         NMat0=    1 NMatS0=      1 NMatT0=    0 NMatD0=    1 NMtDS0=    0 NMtDT0=    0
 Petite list used in FoFCou.
 CoulSu:  requested number of processors reduced to:  21 ShMem   1 Linda.
 CoulSu:  requested number of processors reduced to:  21 ShMem   1 Linda.
 CoulSu:  requested number of processors reduced to:  21 ShMem   1 Linda.
 CoulSu:  requested number of processors reduced to:  21 ShMem   1 Linda.
 Harris En= -473.138688736960    
 JPrj=0 DoOrth=F DoCkMO=F.
 Initial guess orbital symmetries:
 Alpha Orbitals:
       Occupied  (SG) (SG) (SG) (SG) (PI) (PI) (SG) (SG) (SG) (PI)
                 (PI) (PI) (PI)
       Virtual   (SG) (SG) (PI) (PI) (SG) (SG) (PI) (PI) (DLTA)
                 (DLTA) (PI) (PI) (SG) (SG) (PI) (PI) (SG) (DLTA)
                 (DLTA) (SG) (PI) (PI) (DLTA) (DLTA) (PI) (PI)
                 (SG) (SG) (PI) (PI) (SG) (SG) (PHI) (PHI) (PI)
                 (PI) (DLTA) (DLTA) (PI) (PI) (DLTA) (DLTA) (SG)
                 (SG) (PI) (PI) (DLTA) (DLTA) (PI) (PI) (SG) (SG)
                 (PI) (PI) (SG) (SG) (DLTA) (DLTA) (PHI) (PHI)
                 (PI) (PI) (DLTA) (DLTA) (SG) (?A) (?A) (PI) (PI)
                 (PHI) (PHI) (DLTA) (DLTA) (SG) (PHI) (PHI) (SG)
                 (PI) (PI) (PI) (PI) (SG) (DLTA) (DLTA) (SG) (DLTA)
                 (DLTA) (PI) (PI) (SG) (PI) (PI) (SG) (PI) (PI)
                 (SG) (SG) (SG) (DLTA) (DLTA) (PI) (PI) (?A) (?A)
                 (PHI) (PHI) (DLTA) (DLTA) (PI) (PI) (SG) (PHI)
                 (PHI) (DLTA) (DLTA) (PI) (PI) (SG) (DLTA) (DLTA)
                 (PI) (PI) (SG) (SG) (SG) (PI) (PI) (SG) (SG) (SG)
                 (SG) (SG)
 Beta  Orbitals:
       Occupied  (SG) (SG) (SG) (SG) (PI) (PI) (SG) (SG) (SG) (PI)
                 (PI)
       Virtual   (PI) (PI) (SG) (SG) (PI) (PI) (SG) (SG) (PI) (PI)
                 (DLTA) (DLTA) (PI) (PI) (SG) (SG) (PI) (PI) (SG)
                 (DLTA) (DLTA) (SG) (PI) (PI) (DLTA) (DLTA) (PI)
                 (PI) (SG) (SG) (PI) (PI) (SG) (SG) (PHI) (PHI)
                 (PI) (PI) (DLTA) (DLTA) (PI) (PI) (DLTA) (DLTA)
                 (SG) (SG) (PI) (PI) (DLTA) (DLTA) (PI) (PI) (SG)
                 (SG) (PI) (PI) (SG) (SG) (DLTA) (DLTA) (PHI) (PHI)
                 (PI) (PI) (DLTA) (DLTA) (SG) (?A) (?A) (PI) (PI)
                 (PHI) (PHI) (DLTA) (DLTA) (SG) (PHI) (PHI) (SG)
                 (PI) (PI) (PI) (PI) (SG) (DLTA) (DLTA) (SG) (DLTA)
                 (DLTA) (PI) (PI) (SG) (PI) (PI) (SG) (PI) (PI)
                 (SG) (SG) (SG) (DLTA) (DLTA) (PI) (PI) (?A) (?A)
                 (PHI) (PHI) (DLTA) (DLTA) (PI) (PI) (SG) (PHI)
                 (PHI) (DLTA) (DLTA) (PI) (PI) (SG) (DLTA) (DLTA)
                 (PI) (PI) (SG) (SG) (SG) (PI) (PI) (SG) (SG) (SG)
                 (SG) (SG)
 The electronic state of the initial guess is 3-SG.
 Initial guess <Sx>= 0.0000 <Sy>= 0.0000 <Sz>= 1.0000 <S**2>= 2.0000 S= 1.0000
 Leave Link  401 at Sat Apr 17 21:01:17 2021, MaxMem=   104857600 cpu:              97.2 elap:               2.2
 (Enter /s/ls4/users/knvvv/bin/g16sse/l502.exe)
 Integral symmetry usage will be decided dynamically.
 UHF open shell SCF:
 Using DIIS extrapolation, IDIIS=  1040.
 NGot=   104857600 LenX=   104783104 LenY=   104750979
 Requested convergence on RMS density matrix=1.00D-08 within 128 cycles.
 Requested convergence on MAX density matrix=1.00D-06.
 Requested convergence on             energy=1.00D-06.
 No special actions if energy rises.
 Fock matrices will be formed incrementally for  20 cycles.

 Cycle   1  Pass 1  IDiag  1:
 FoFJK:  IHMeth= 1 ICntrl=       0 DoSepK=F KAlg= 0 I1Cent=           0 FoldK=F
 IRaf= 990000000 NMat=       1 IRICut=       1 DoRegI=T DoRafI=F ISym2E= 1 IDoP0=0 IntGTp=1.
 FoFCou: FMM=F IPFlag=           0 FMFlag=      100000 FMFlg1=           0
         NFxFlg=           0 DoJE=F BraDBF=F KetDBF=F FulRan=T
         wScrn=  0.000000 ICntrl=         0 IOpCl=  1 I1Cent=           0 NGrid=           0
         NMat0=    1 NMatS0=      1 NMatT0=    0 NMatD0=    1 NMtDS0=    0 NMtDT0=    0
 Petite list used in FoFCou.
 CoulSu:  requested number of processors reduced to:  20 ShMem   1 Linda.
 E= -473.268784505889    
 DIIS: error= 4.08D-02 at cycle   1 NSaved=   1.
 NSaved= 1 IEnMin= 1 EnMin= -473.268784505889     IErMin= 1 ErrMin= 4.08D-02
 ErrMax= 4.08D-02  0.00D+00 EMaxC= 1.00D-01 BMatC= 9.12D-01 BMatP= 9.12D-01
 IDIUse=3 WtCom= 5.92D-01 WtEn= 4.08D-01
 Coeff-Com:  0.100D+01
 Coeff-En:   0.100D+01
 Coeff:      0.100D+01
 Gap=     0.347 Goal=   None    Shift=    0.000
 Gap=     0.217 Goal=   None    Shift=    0.000
 GapD=    0.217 DampG=1.000 DampE=0.500 DampFc=0.5000 IDamp=-1.
 Damping current iteration by 5.00D-01
 RMSDP=3.31D-03 MaxDP=1.28D-01              OVMax= 4.11D-01

 Cycle   2  Pass 1  IDiag  1:
 RMSU=  1.65D-03    CP:  1.00D+00
 CoulSu:  requested number of processors reduced to:  20 ShMem   1 Linda.
 E= -473.270376394606     Delta-E=       -0.001591888718 Rises=F Damp=T
 DIIS: error= 2.45D-02 at cycle   2 NSaved=   2.
 NSaved= 2 IEnMin= 2 EnMin= -473.270376394606     IErMin= 2 ErrMin= 2.45D-02
 ErrMax= 2.45D-02  0.00D+00 EMaxC= 1.00D-01 BMatC= 2.30D-01 BMatP= 9.12D-01
 IDIUse=3 WtCom= 7.55D-01 WtEn= 2.45D-01
 Coeff-Com:  0.227D+00 0.773D+00
 Coeff-En:   0.495D+00 0.505D+00
 Coeff:      0.292D+00 0.708D+00
 Gap=     0.396 Goal=   None    Shift=    0.000
 Gap=     0.407 Goal=   None    Shift=    0.000
 RMSDP=1.19D-03 MaxDP=7.14D-02 DE=-1.59D-03 OVMax= 2.88D-01

 Cycle   3  Pass 1  IDiag  1:
 RMSU=  1.17D-03    CP:  9.96D-01  8.77D-01
 CoulSu:  requested number of processors reduced to:  20 ShMem   1 Linda.
 E= -473.375668141972     Delta-E=       -0.105291747365 Rises=F Damp=F
 DIIS: error= 7.75D-03 at cycle   3 NSaved=   3.
 NSaved= 3 IEnMin= 3 EnMin= -473.375668141972     IErMin= 3 ErrMin= 7.75D-03
 ErrMax= 7.75D-03  0.00D+00 EMaxC= 1.00D-01 BMatC= 1.71D-02 BMatP= 2.30D-01
 IDIUse=3 WtCom= 9.22D-01 WtEn= 7.75D-02
 Coeff-Com: -0.495D-01 0.165D+00 0.884D+00
 Coeff-En:   0.000D+00 0.000D+00 0.100D+01
 Coeff:     -0.457D-01 0.152D+00 0.893D+00
 Gap=     0.328 Goal=   None    Shift=    0.000
 Gap=     0.359 Goal=   None    Shift=    0.000
 RMSDP=3.08D-04 MaxDP=9.68D-03 DE=-1.05D-01 OVMax= 4.04D-02

 Cycle   4  Pass 1  IDiag  1:
 RMSU=  2.48D-04    CP:  9.93D-01  9.77D-01  9.50D-01
 CoulSu:  requested number of processors reduced to:  20 ShMem   1 Linda.
 E= -473.379166104614     Delta-E=       -0.003497962642 Rises=F Damp=F
 DIIS: error= 2.85D-03 at cycle   4 NSaved=   4.
 NSaved= 4 IEnMin= 4 EnMin= -473.379166104614     IErMin= 4 ErrMin= 2.85D-03
 ErrMax= 2.85D-03  0.00D+00 EMaxC= 1.00D-01 BMatC= 2.34D-03 BMatP= 1.71D-02
 IDIUse=3 WtCom= 9.71D-01 WtEn= 2.85D-02
 Coeff-Com:  0.162D-02-0.167D-01 0.218D+00 0.797D+00
 Coeff-En:   0.000D+00 0.000D+00 0.000D+00 0.100D+01
 Coeff:      0.158D-02-0.162D-01 0.211D+00 0.803D+00
 Gap=     0.332 Goal=   None    Shift=    0.000
 Gap=     0.366 Goal=   None    Shift=    0.000
 RMSDP=8.65D-05 MaxDP=3.34D-03 DE=-3.50D-03 OVMax= 5.94D-03

 Cycle   5  Pass 1  IDiag  1:
 RMSU=  7.12D-05    CP:  9.94D-01  9.61D-01  9.75D-01  1.11D+00
 CoulSu:  requested number of processors reduced to:  20 ShMem   1 Linda.
 E= -473.379608762826     Delta-E=       -0.000442658212 Rises=F Damp=F
 DIIS: error= 8.01D-04 at cycle   5 NSaved=   5.
 NSaved= 5 IEnMin= 5 EnMin= -473.379608762826     IErMin= 5 ErrMin= 8.01D-04
 ErrMax= 8.01D-04  0.00D+00 EMaxC= 1.00D-01 BMatC= 1.92D-04 BMatP= 2.34D-03
 IDIUse=3 WtCom= 9.92D-01 WtEn= 8.01D-03
 Coeff-Com:  0.125D-01-0.246D-01-0.930D-01-0.116D+00 0.122D+01
 Coeff-En:   0.000D+00 0.000D+00 0.000D+00 0.000D+00 0.100D+01
 Coeff:      0.124D-01-0.244D-01-0.923D-01-0.115D+00 0.122D+01
 Gap=     0.331 Goal=   None    Shift=    0.000
 Gap=     0.366 Goal=   None    Shift=    0.000
 RMSDP=6.44D-05 MaxDP=4.03D-03 DE=-4.43D-04 OVMax= 4.36D-03

 Cycle   6  Pass 1  IDiag  1:
 RMSU=  3.27D-05    CP:  9.93D-01  9.47D-01  9.72D-01  1.27D+00  1.43D+00
 CoulSu:  requested number of processors reduced to:  20 ShMem   1 Linda.
 E= -473.379692804818     Delta-E=       -0.000084041991 Rises=F Damp=F
 DIIS: error= 2.37D-04 at cycle   6 NSaved=   6.
 NSaved= 6 IEnMin= 6 EnMin= -473.379692804818     IErMin= 6 ErrMin= 2.37D-04
 ErrMax= 2.37D-04  0.00D+00 EMaxC= 1.00D-01 BMatC= 1.69D-05 BMatP= 1.92D-04
 IDIUse=3 WtCom= 9.98D-01 WtEn= 2.37D-03
 Coeff-Com:  0.247D-03 0.329D-03-0.103D-01-0.853D-01-0.786D-01 0.117D+01
 Coeff-En:   0.000D+00 0.000D+00 0.000D+00 0.000D+00 0.000D+00 0.100D+01
 Coeff:      0.246D-03 0.328D-03-0.103D-01-0.851D-01-0.784D-01 0.117D+01
 Gap=     0.332 Goal=   None    Shift=    0.000
 Gap=     0.366 Goal=   None    Shift=    0.000
 RMSDP=2.34D-05 MaxDP=7.52D-04 DE=-8.40D-05 OVMax= 2.55D-03

 Cycle   7  Pass 1  IDiag  1:
 RMSU=  1.05D-05    CP:  9.93D-01  9.44D-01  9.70D-01  1.30D+00  1.65D+00
                    CP:  1.33D+00
 CoulSu:  requested number of processors reduced to:  20 ShMem   1 Linda.
 E= -473.379704193982     Delta-E=       -0.000011389164 Rises=F Damp=F
 DIIS: error= 9.04D-05 at cycle   7 NSaved=   7.
 NSaved= 7 IEnMin= 7 EnMin= -473.379704193982     IErMin= 7 ErrMin= 9.04D-05
 ErrMax= 9.04D-05  0.00D+00 EMaxC= 1.00D-01 BMatC= 2.80D-06 BMatP= 1.69D-05
 IDIUse=1 WtCom= 1.00D+00 WtEn= 0.00D+00
 Coeff-Com: -0.217D-03 0.514D-03 0.136D-01 0.408D-01-0.161D+00-0.164D+00
 Coeff-Com:  0.127D+01
 Coeff:     -0.217D-03 0.514D-03 0.136D-01 0.408D-01-0.161D+00-0.164D+00
 Coeff:      0.127D+01
 Gap=     0.332 Goal=   None    Shift=    0.000
 Gap=     0.366 Goal=   None    Shift=    0.000
 RMSDP=9.43D-06 MaxDP=4.13D-04 DE=-1.14D-05 OVMax= 8.88D-04

 Cycle   8  Pass 1  IDiag  1:
 RMSU=  2.91D-06    CP:  9.93D-01  9.42D-01  9.69D-01  1.31D+00  1.70D+00
                    CP:  1.52D+00  1.34D+00
 CoulSu:  requested number of processors reduced to:  20 ShMem   1 Linda.
 E= -473.379705592624     Delta-E=       -0.000001398642 Rises=F Damp=F
 DIIS: error= 2.41D-05 at cycle   8 NSaved=   8.
 NSaved= 8 IEnMin= 8 EnMin= -473.379705592624     IErMin= 8 ErrMin= 2.41D-05
 ErrMax= 2.41D-05  0.00D+00 EMaxC= 1.00D-01 BMatC= 1.56D-07 BMatP= 2.80D-06
 IDIUse=1 WtCom= 1.00D+00 WtEn= 0.00D+00
 Coeff-Com:  0.108D-03-0.197D-03 0.158D-02 0.318D-02-0.485D-02-0.580D-01
 Coeff-Com:  0.361D-01 0.102D+01
 Coeff:      0.108D-03-0.197D-03 0.158D-02 0.318D-02-0.485D-02-0.580D-01
 Coeff:      0.361D-01 0.102D+01
 Gap=     0.332 Goal=   None    Shift=    0.000
 Gap=     0.366 Goal=   None    Shift=    0.000
 RMSDP=1.65D-06 MaxDP=5.47D-05 DE=-1.40D-06 OVMax= 1.73D-04

 Cycle   9  Pass 1  IDiag  1:
 RMSU=  6.37D-07    CP:  9.93D-01  9.42D-01  9.69D-01  1.31D+00  1.71D+00
                    CP:  1.55D+00  1.39D+00  1.26D+00
 CoulSu:  requested number of processors reduced to:  20 ShMem   1 Linda.
 E= -473.379705646177     Delta-E=       -0.000000053553 Rises=F Damp=F
 DIIS: error= 3.46D-06 at cycle   9 NSaved=   9.
 NSaved= 9 IEnMin= 9 EnMin= -473.379705646177     IErMin= 9 ErrMin= 3.46D-06
 ErrMax= 3.46D-06  0.00D+00 EMaxC= 1.00D-01 BMatC= 3.51D-09 BMatP= 1.56D-07
 IDIUse=1 WtCom= 1.00D+00 WtEn= 0.00D+00
 Coeff-Com:  0.187D-04-0.476D-04-0.384D-03-0.175D-02 0.865D-02-0.979D-03
 Coeff-Com: -0.740D-01 0.117D+00 0.951D+00
 Coeff:      0.187D-04-0.476D-04-0.384D-03-0.175D-02 0.865D-02-0.979D-03
 Coeff:     -0.740D-01 0.117D+00 0.951D+00
 Gap=     0.332 Goal=   None    Shift=    0.000
 Gap=     0.366 Goal=   None    Shift=    0.000
 RMSDP=4.22D-07 MaxDP=1.68D-05 DE=-5.36D-08 OVMax= 3.53D-05

 Cycle  10  Pass 1  IDiag  1:
 RMSU=  1.47D-07    CP:  9.93D-01  9.42D-01  9.69D-01  1.31D+00  1.71D+00
                    CP:  1.55D+00  1.40D+00  1.35D+00  1.20D+00
 CoulSu:  requested number of processors reduced to:  20 ShMem   1 Linda.
 E= -473.379705647782     Delta-E=       -0.000000001605 Rises=F Damp=F
 DIIS: error= 6.92D-07 at cycle  10 NSaved=  10.
 NSaved=10 IEnMin=10 EnMin= -473.379705647782     IErMin=10 ErrMin= 6.92D-07
 ErrMax= 6.92D-07  0.00D+00 EMaxC= 1.00D-01 BMatC= 1.91D-10 BMatP= 3.51D-09
 IDIUse=1 WtCom= 1.00D+00 WtEn= 0.00D+00
 Coeff-Com: -0.954D-05 0.189D-04-0.121D-03-0.123D-03-0.123D-03 0.400D-02
 Coeff-Com:  0.363D-02-0.777D-01-0.698D-01 0.114D+01
 Coeff:     -0.954D-05 0.189D-04-0.121D-03-0.123D-03-0.123D-03 0.400D-02
 Coeff:      0.363D-02-0.777D-01-0.698D-01 0.114D+01
 Gap=     0.332 Goal=   None    Shift=    0.000
 Gap=     0.366 Goal=   None    Shift=    0.000
 RMSDP=1.42D-07 MaxDP=5.85D-06 DE=-1.60D-09 OVMax= 8.71D-06

 Cycle  11  Pass 1  IDiag  1:
 RMSU=  4.18D-08    CP:  9.93D-01  9.42D-01  9.69D-01  1.31D+00  1.72D+00
                    CP:  1.55D+00  1.40D+00  1.37D+00  1.30D+00  1.40D+00
 CoulSu:  requested number of processors reduced to:  20 ShMem   1 Linda.
 E= -473.379705647882     Delta-E=       -0.000000000100 Rises=F Damp=F
 DIIS: error= 2.56D-07 at cycle  11 NSaved=  11.
 NSaved=11 IEnMin=11 EnMin= -473.379705647882     IErMin=11 ErrMin= 2.56D-07
 ErrMax= 2.56D-07  0.00D+00 EMaxC= 1.00D-01 BMatC= 1.23D-11 BMatP= 1.91D-10
 IDIUse=1 WtCom= 1.00D+00 WtEn= 0.00D+00
 Coeff-Com:  0.868D-06-0.488D-06 0.258D-04 0.481D-04-0.139D-03-0.791D-03
 Coeff-Com:  0.169D-02 0.140D-01-0.267D-01-0.265D+00 0.128D+01
 Coeff:      0.868D-06-0.488D-06 0.258D-04 0.481D-04-0.139D-03-0.791D-03
 Coeff:      0.169D-02 0.140D-01-0.267D-01-0.265D+00 0.128D+01
 Gap=     0.332 Goal=   None    Shift=    0.000
 Gap=     0.366 Goal=   None    Shift=    0.000
 RMSDP=3.88D-08 MaxDP=1.96D-06 DE=-1.00D-10 OVMax= 2.71D-06

 Cycle  12  Pass 1  IDiag  1:
 RMSU=  8.60D-09    CP:  9.93D-01  9.42D-01  9.69D-01  1.31D+00  1.72D+00
                    CP:  1.55D+00  1.40D+00  1.37D+00  1.31D+00  1.53D+00
                    CP:  1.43D+00
 CoulSu:  requested number of processors reduced to:  20 ShMem   1 Linda.
 E= -473.379705647889     Delta-E=       -0.000000000008 Rises=F Damp=F
 DIIS: error= 5.47D-08 at cycle  12 NSaved=  12.
 NSaved=12 IEnMin=12 EnMin= -473.379705647889     IErMin=12 ErrMin= 5.47D-08
 ErrMax= 5.47D-08  0.00D+00 EMaxC= 1.00D-01 BMatC= 4.93D-13 BMatP= 1.23D-11
 IDIUse=1 WtCom= 1.00D+00 WtEn= 0.00D+00
 Coeff-Com:  0.642D-07-0.385D-06 0.987D-06-0.518D-06 0.259D-04-0.403D-04
 Coeff-Com: -0.460D-03 0.167D-02 0.585D-02-0.572D-02-0.218D+00 0.122D+01
 Coeff:      0.642D-07-0.385D-06 0.987D-06-0.518D-06 0.259D-04-0.403D-04
 Coeff:     -0.460D-03 0.167D-02 0.585D-02-0.572D-02-0.218D+00 0.122D+01
 Gap=     0.332 Goal=   None    Shift=    0.000
 Gap=     0.366 Goal=   None    Shift=    0.000
 RMSDP=7.63D-09 MaxDP=3.72D-07 DE=-7.62D-12 OVMax= 5.73D-07

 SCF Done:  E(UM062X) =  -473.379705648     A.U. after   12 cycles
            NFock= 12  Conv=0.76D-08     -V/T= 2.0017
 <Sx>= 0.0000 <Sy>= 0.0000 <Sz>= 1.0000 <S**2>= 2.0130 S= 1.0043
 <L.S>= 0.000000000000E+00
 KE= 4.725807488611D+02 PE=-1.216021170595D+03 EE= 2.244854100192D+02
 Annihilation of the first spin contaminant:
 S**2 before annihilation     2.0130,   after     2.0001
 Leave Link  502 at Sat Apr 17 21:03:44 2021, MaxMem=   104857600 cpu:            6730.7 elap:             147.8
 (Enter /s/ls4/users/knvvv/bin/g16sse/l601.exe)
 Copying SCF densities to generalized density rwf, IOpCl= 1 IROHF=0.

 **********************************************************************

            Population analysis using the SCF density.

 **********************************************************************

 Orbital symmetries:
 Alpha Orbitals:
       Occupied  (SG) (SG) (SG) (PI) (PI) (SG) (SG) (SG) (PI) (PI)
                 (SG) (PI) (PI)
       Virtual   (SG) (SG) (PI) (PI) (SG) (PI) (PI) (SG) (DLTA)
                 (DLTA) (PI) (PI) (SG) (SG) (PI) (PI) (SG) (DLTA)
                 (DLTA) (SG) (DLTA) (DLTA) (PI) (PI) (PI) (PI)
                 (SG) (SG) (PI) (PI) (SG) (SG) (PHI) (PHI) (PI)
                 (PI) (DLTA) (DLTA) (PI) (PI) (DLTA) (DLTA) (SG)
                 (SG) (PI) (PI) (DLTA) (DLTA) (SG) (PI) (PI) (SG)
                 (PI) (PI) (SG) (SG) (DLTA) (DLTA) (PHI) (PHI)
                 (PI) (PI) (SG) (DLTA) (DLTA) (?A) (?A) (PI) (PI)
                 (PHI) (PHI) (DLTA) (DLTA) (SG) (PHI) (PHI) (SG)
                 (PI) (PI) (PI) (PI) (SG) (DLTA) (DLTA) (SG) (DLTA)
                 (DLTA) (PI) (PI) (SG) (PI) (PI) (SG) (PI) (PI)
                 (SG) (SG) (SG) (DLTA) (DLTA) (PI) (PI) (?A) (?A)
                 (PHI) (PHI) (DLTA) (DLTA) (PI) (PI) (SG) (PHI)
                 (PHI) (DLTA) (DLTA) (PI) (PI) (SG) (DLTA) (DLTA)
                 (PI) (PI) (SG) (SG) (SG) (PI) (PI) (SG) (SG) (SG)
                 (SG) (SG)
 Beta  Orbitals:
       Occupied  (SG) (SG) (SG) (SG) (PI) (PI) (SG) (SG) (SG) (PI)
                 (PI)
       Virtual   (PI) (PI) (SG) (SG) (PI) (PI) (SG) (SG) (PI) (PI)
                 (DLTA) (DLTA) (PI) (PI) (SG) (SG) (PI) (PI) (SG)
                 (DLTA) (DLTA) (SG) (DLTA) (DLTA) (PI) (PI) (PI)
                 (PI) (SG) (SG) (PI) (PI) (SG) (SG) (PHI) (PHI)
                 (DLTA) (DLTA) (PI) (PI) (PI) (PI) (DLTA) (DLTA)
                 (SG) (SG) (PI) (PI) (DLTA) (DLTA) (SG) (PI) (PI)
                 (SG) (PI) (PI) (SG) (SG) (DLTA) (DLTA) (PI) (PI)
                 (PHI) (PHI) (SG) (DLTA) (DLTA) (?A) (?A) (PI)
                 (PI) (PHI) (PHI) (DLTA) (DLTA) (SG) (PHI) (PHI)
                 (SG) (PI) (PI) (PI) (PI) (SG) (DLTA) (DLTA) (SG)
                 (DLTA) (DLTA) (PI) (PI) (SG) (PI) (PI) (SG) (PI)
                 (PI) (SG) (SG) (SG) (PI) (PI) (DLTA) (DLTA) (PHI)
                 (PHI) (?A) (?A) (DLTA) (DLTA) (PI) (PI) (SG) (PHI)
                 (PHI) (DLTA) (DLTA) (PI) (PI) (SG) (DLTA) (DLTA)
                 (PI) (PI) (SG) (SG) (SG) (PI) (PI) (SG) (SG) (SG)
                 (SG) (SG)
 The electronic state is 3-SG.
 Alpha  occ. eigenvalues --  -90.00328 -19.70401  -8.34969  -6.27588  -6.27588
 Alpha  occ. eigenvalues --   -6.26981  -1.21792  -0.78129  -0.54756  -0.54756
 Alpha  occ. eigenvalues --   -0.53531  -0.32726  -0.32726
 Alpha virt. eigenvalues --    0.00445   0.01726   0.02257   0.02257   0.06562
 Alpha virt. eigenvalues --    0.09264   0.09264   0.09480   0.13273   0.13274
 Alpha virt. eigenvalues --    0.20064   0.20064   0.20505   0.23080   0.27819
 Alpha virt. eigenvalues --    0.27819   0.30761   0.35347   0.35350   0.36988
 Alpha virt. eigenvalues --    0.40396   0.40396   0.41706   0.41706   0.45249
 Alpha virt. eigenvalues --    0.45249   0.58563   0.61044   0.61838   0.61838
 Alpha virt. eigenvalues --    0.68726   0.94071   1.02549   1.02549   1.02693
 Alpha virt. eigenvalues --    1.02693   1.04852   1.04853   1.06158   1.06158
 Alpha virt. eigenvalues --    1.08896   1.08909   1.10686   1.24758   1.34874
 Alpha virt. eigenvalues --    1.34874   1.38348   1.38353   1.49156   1.51207
 Alpha virt. eigenvalues --    1.51207   1.63226   1.83798   1.83798   1.96670
 Alpha virt. eigenvalues --    2.30670   2.66087   2.66104   2.75735   2.75735
 Alpha virt. eigenvalues --    2.75986   2.75986   2.78615   2.79405   2.79406
 Alpha virt. eigenvalues --    2.86386   2.86386   2.96637   2.96637   3.02575
 Alpha virt. eigenvalues --    3.02575   3.11787   3.11796   3.20763   3.27698
 Alpha virt. eigenvalues --    3.27698   3.38383   3.44179   3.44179   3.49683
 Alpha virt. eigenvalues --    3.49683   3.63640   3.84194   3.84195   3.96922
 Alpha virt. eigenvalues --    4.03463   4.03465   4.24864   4.24864   4.70313
 Alpha virt. eigenvalues --    4.80928   4.80928   4.97545   5.28672   5.28672
 Alpha virt. eigenvalues --    6.81846   7.26311   8.52418   8.64766   8.64770
 Alpha virt. eigenvalues --    8.64919   8.64919   8.73748   8.73756   8.75090
 Alpha virt. eigenvalues --    8.75090   8.91224   8.91225   9.28697   9.28697
 Alpha virt. eigenvalues --    9.73811  10.74892  10.74892  10.98116  10.98119
 Alpha virt. eigenvalues --   11.53685  11.53685  11.61571  11.90673  11.90675
 Alpha virt. eigenvalues --   12.08736  12.08736  12.57295  13.68606  24.16400
 Alpha virt. eigenvalues --   28.86113  28.86113  29.38455  47.78364  83.89286
 Alpha virt. eigenvalues --  250.83595 449.53814
  Beta  occ. eigenvalues --  -89.99101 -19.68630  -8.34560  -6.26628  -6.25652
  Beta  occ. eigenvalues --   -6.25652  -1.16712  -0.70416  -0.49461  -0.45703
  Beta  occ. eigenvalues --   -0.45703
  Beta virt. eigenvalues --   -0.09090  -0.09090   0.01217   0.01713   0.04103
  Beta virt. eigenvalues --    0.04103   0.07142   0.10276   0.10469   0.10469
  Beta virt. eigenvalues --    0.11446   0.11446   0.17841   0.17841   0.21105
  Beta virt. eigenvalues --    0.22380   0.25806   0.25806   0.30325   0.35786
  Beta virt. eigenvalues --    0.35787   0.37062   0.42494   0.42494   0.42780
  Beta virt. eigenvalues --    0.42780   0.47540   0.47540   0.58458   0.60446
  Beta virt. eigenvalues --    0.61145   0.61145   0.68744   0.94667   1.03084
  Beta virt. eigenvalues --    1.03084   1.05249   1.05250   1.05437   1.05437
  Beta virt. eigenvalues --    1.07632   1.07632   1.10371   1.10371   1.11249
  Beta virt. eigenvalues --    1.24823   1.35526   1.35526   1.39985   1.39985
  Beta virt. eigenvalues --    1.49631   1.54350   1.54350   1.63725   1.84453
  Beta virt. eigenvalues --    1.84453   1.97836   2.32642   2.70786   2.70791
  Beta virt. eigenvalues --    2.76183   2.76183   2.78187   2.78187   2.80664
  Beta virt. eigenvalues --    2.81544   2.81550   2.91941   2.91950   2.98720
  Beta virt. eigenvalues --    2.98720   3.13638   3.13638   3.19232   3.19235
  Beta virt. eigenvalues --    3.22482   3.29725   3.29725   3.41628   3.46859
  Beta virt. eigenvalues --    3.46859   3.54926   3.54926   3.66426   3.86597
  Beta virt. eigenvalues --    3.86599   3.97686   4.06163   4.06163   4.26317
  Beta virt. eigenvalues --    4.26317   4.72417   4.82712   4.82712   4.96249
  Beta virt. eigenvalues --    5.32221   5.32221   6.84019   7.30495   8.54334
  Beta virt. eigenvalues --    8.68731   8.68731   8.73208   8.73210   8.75919
  Beta virt. eigenvalues --    8.75919   8.77205   8.77207   8.90618   8.90618
  Beta virt. eigenvalues --    9.29148   9.29148   9.75648  10.83807  10.83807
  Beta virt. eigenvalues --   11.02909  11.02910  11.56792  11.56792  11.63782
  Beta virt. eigenvalues --   11.98958  11.98960  12.14094  12.14094  12.60856
  Beta virt. eigenvalues --   13.81114  24.25303  28.92366  28.92366  29.40223
  Beta virt. eigenvalues --   47.81356  83.92945 250.79752 449.52842
          Condensed to atoms (all electrons):
               1          2
     1  S   15.395277   0.275296
     2  O    0.275296   8.054131
          Atomic-Atomic Spin Densities.
               1          2
     1  S    1.630750  -0.305711
     2  O   -0.305711   0.980671
 Mulliken charges and spin densities:
               1          2
     1  S    0.329427   1.325040
     2  O   -0.329427   0.674960
 Sum of Mulliken charges =  -0.00000   2.00000
 Mulliken charges and spin densities with hydrogens summed into heavy atoms:
               1          2
     1  S    0.329427   1.325040
     2  O   -0.329427   0.674960
 Electronic spatial extent (au):  <R**2>=             81.9483
 Charge=             -0.0000 electrons
 Dipole moment (field-independent basis, Debye):
    X=              0.0000    Y=             -0.0000    Z=              1.6556  Tot=              1.6556
 Quadrupole moment (field-independent basis, Debye-Ang):
   XX=            -17.6162   YY=            -17.6162   ZZ=            -18.4071
   XY=             -0.0000   XZ=              0.0000   YZ=             -0.0000
 Traceless Quadrupole moment (field-independent basis, Debye-Ang):
   XX=              0.2636   YY=              0.2636   ZZ=             -0.5273
   XY=             -0.0000   XZ=              0.0000   YZ=             -0.0000
 Octapole moment (field-independent basis, Debye-Ang**2):
  XXX=              0.0000  YYY=             -0.0000  ZZZ=              0.4567  XYY=              0.0000
  XXY=              0.0000  XXZ=             -1.0757  XZZ=              0.0000  YZZ=             -0.0000
  YYZ=             -1.0757  XYZ=             -0.0000
 Hexadecapole moment (field-independent basis, Debye-Ang**3):
 XXXX=            -20.1179 YYYY=            -20.1179 ZZZZ=            -68.0472 XXXY=             -0.0000
 XXXZ=              0.0000 YYYX=             -0.0000 YYYZ=             -0.0000 ZZZX=              0.0000
 ZZZY=             -0.0000 XXYY=             -6.7060 XXZZ=            -15.2942 YYZZ=            -15.2942
 XXYZ=              0.0000 YYXZ=              0.0000 ZZXY=             -0.0000
 N-N= 4.557530606719D+01 E-N=-1.216021170503D+03  KE= 4.725807488611D+02
                          Isotropic Fermi Contact Couplings
        Atom                 a.u.       MegaHertz       Gauss      10(-4) cm-1
     1  S(33)              0.06049      10.38771       3.70659       3.46497
     2  O(17)              0.12694     -38.47466     -13.72872     -12.83376
 PrsmSu:  requested number of processors reduced to:  21 ShMem   1 Linda.
 --------------------------------------------------------
       Center         ----  Spin Dipole Couplings  ----
                      3XX-RR        3YY-RR        3ZZ-RR
 --------------------------------------------------------
     1   Atom        1.587035      1.587035     -3.174069
     2   Atom        0.930701      0.930701     -1.861402
 --------------------------------------------------------
                        XY            XZ            YZ
 --------------------------------------------------------
     1   Atom        0.000000      0.000000      0.000000
     2   Atom        0.000000      0.000000      0.000000
 --------------------------------------------------------


 ---------------------------------------------------------------------------------
              Anisotropic Spin Dipole Couplings in Principal Axis System
 ---------------------------------------------------------------------------------

       Atom             a.u.   MegaHertz   Gauss  10(-4) cm-1        Axes

              Baa    -3.1741  -130.134   -46.435   -43.408  0.0000  0.0000  1.0000
     1 S(33)  Bbb     1.5870    65.067    23.218    21.704  1.0000  0.0000  0.0000
              Bcc     1.5870    65.067    23.218    21.704 -0.0000  1.0000  0.0000
 
              Baa    -1.8614   134.690    48.061    44.928  0.0000  0.0000  1.0000
     2 O(17)  Bbb     0.9307   -67.345   -24.030   -22.464 -0.0000  1.0000  0.0000
              Bcc     0.9307   -67.345   -24.030   -22.464  1.0000  0.0000  0.0000
 

 ---------------------------------------------------------------------------------

 PrsmSu:  requested number of processors reduced to:  21 ShMem   1 Linda.
 No NMR shielding tensors so no spin-rotation constants.
 Leave Link  601 at Sat Apr 17 21:03:48 2021, MaxMem=   104857600 cpu:             145.0 elap:               3.3
 (Enter /s/ls4/users/knvvv/bin/g16sse/l801.exe)
 DoSCS=F DFT=T ScalE2(SS,OS)=  1.000000  1.000000
 Range of M.O.s used for correlation:     1   145
 NBasis=   145 NAE=    13 NBE=    11 NFC=     0 NFV=     0
 NROrb=    145 NOA=    13 NOB=    11 NVA=   132 NVB=   134

 **** Warning!!: The largest alpha MO coefficient is  0.27756257D+02


 **** Warning!!: The largest beta MO coefficient is  0.28455032D+02

 Leave Link  801 at Sat Apr 17 21:03:48 2021, MaxMem=   104857600 cpu:               3.5 elap:               0.1
 (Enter /s/ls4/users/knvvv/bin/g16sse/l914.exe)
 UHF ground state
 Doing stability rather than CIS.
 Two-electron integrals replicated using symmetry.
 MDV=   104857600 DFT=T DoStab=T Mixed=T DoRPA=F DoScal=F NonHer=F
 Making orbital integer symmetry assigments:
 Orbital symmetries:
 Alpha Orbitals:
       Occupied  (SG) (SG) (SG) (PI) (PI) (SG) (SG) (SG) (PI) (PI)
                 (SG) (PI) (PI)
       Virtual   (SG) (SG) (PI) (PI) (SG) (PI) (PI) (SG) (DLTA)
                 (DLTA) (PI) (PI) (SG) (SG) (PI) (PI) (SG) (DLTA)
                 (DLTA) (SG) (DLTA) (DLTA) (PI) (PI) (PI) (PI)
                 (SG) (SG) (PI) (PI) (SG) (SG) (PHI) (PHI) (PI)
                 (PI) (DLTA) (DLTA) (PI) (PI) (DLTA) (DLTA) (SG)
                 (SG) (PI) (PI) (DLTA) (DLTA) (SG) (PI) (PI) (SG)
                 (PI) (PI) (SG) (SG) (DLTA) (DLTA) (PHI) (PHI)
                 (PI) (PI) (SG) (DLTA) (DLTA) (?A) (?A) (PI) (PI)
                 (PHI) (PHI) (DLTA) (DLTA) (SG) (PHI) (PHI) (SG)
                 (PI) (PI) (PI) (PI) (SG) (DLTA) (DLTA) (SG) (DLTA)
                 (DLTA) (PI) (PI) (SG) (PI) (PI) (SG) (PI) (PI)
                 (SG) (SG) (SG) (DLTA) (DLTA) (PI) (PI) (?A) (?A)
                 (PHI) (PHI) (DLTA) (DLTA) (PI) (PI) (SG) (PHI)
                 (PHI) (DLTA) (DLTA) (PI) (PI) (SG) (DLTA) (DLTA)
                 (PI) (PI) (SG) (SG) (SG) (PI) (PI) (SG) (SG) (SG)
                 (SG) (SG)
 Beta  Orbitals:
       Occupied  (SG) (SG) (SG) (SG) (PI) (PI) (SG) (SG) (SG) (PI)
                 (PI)
       Virtual   (PI) (PI) (SG) (SG) (PI) (PI) (SG) (SG) (PI) (PI)
                 (DLTA) (DLTA) (PI) (PI) (SG) (SG) (PI) (PI) (SG)
                 (DLTA) (DLTA) (SG) (DLTA) (DLTA) (PI) (PI) (PI)
                 (PI) (SG) (SG) (PI) (PI) (SG) (SG) (PHI) (PHI)
                 (DLTA) (DLTA) (PI) (PI) (PI) (PI) (DLTA) (DLTA)
                 (SG) (SG) (PI) (PI) (DLTA) (DLTA) (SG) (PI) (PI)
                 (SG) (PI) (PI) (SG) (SG) (DLTA) (DLTA) (PI) (PI)
                 (PHI) (PHI) (SG) (DLTA) (DLTA) (?A) (?A) (PI)
                 (PI) (PHI) (PHI) (DLTA) (DLTA) (SG) (PHI) (PHI)
                 (SG) (PI) (PI) (PI) (PI) (SG) (DLTA) (DLTA) (SG)
                 (DLTA) (DLTA) (PI) (PI) (SG) (PI) (PI) (SG) (PI)
                 (PI) (SG) (SG) (SG) (PI) (PI) (DLTA) (DLTA) (PHI)
                 (PHI) (?A) (?A) (DLTA) (DLTA) (PI) (PI) (SG) (PHI)
                 (PHI) (DLTA) (DLTA) (PI) (PI) (SG) (DLTA) (DLTA)
                 (PI) (PI) (SG) (SG) (SG) (PI) (PI) (SG) (SG) (SG)
                 (SG) (SG)
    12 initial guesses have been made.
 Convergence on wavefunction:    0.001000000000000
 Davidson Disk Diagonalization:  ConvIn= 1.00D-03 SkipCon=T Conv= 1.00D-03.
 Max sub-space:  2000 roots to seek:    12 dimension of matrix:         3190
 Iteration     1 Dimension    12 NMult     0 NNew     12
 Estimated number of processors is:   20
 CISAX will form     1 AO SS matrices at one time.
 NMat=     1 NSing=     1 JSym2X= 2.
 FoFJK:  IHMeth= 1 ICntrl=       0 DoSepK=F KAlg= 0 I1Cent=           0 FoldK=F
 IRaf= 990000000 NMat=       1 IRICut=       1 DoRegI=T DoRafI=F ISym2E= 2 IDoP0=0 IntGTp=1.
 FoFCou: FMM=F IPFlag=           0 FMFlag=      100000 FMFlg1=           0
         NFxFlg=           0 DoJE=F BraDBF=F KetDBF=F FulRan=T
         wScrn=  0.000000 ICntrl=         0 IOpCl=  1 I1Cent=           0 NGrid=           0
         NMat0=    1 NMatS0=      1 NMatT0=    0 NMatD0=    1 NMtDS0=    0 NMtDT0=    0
 Integrals replicated using symmetry in FoFCou.
 CoulSu:  requested number of processors reduced to:  20 ShMem   1 Linda.
 NMat=     1 NSing=     1 JSym2X= 2.
 CoulSu:  requested number of processors reduced to:  20 ShMem   1 Linda.
 NMat=     1 NSing=     1 JSym2X= 2.
 CoulSu:  requested number of processors reduced to:  20 ShMem   1 Linda.
 NMat=     1 NSing=     1 JSym2X= 2.
 CoulSu:  requested number of processors reduced to:  20 ShMem   1 Linda.
 NMat=     1 NSing=     1 JSym2X= 2.
 CoulSu:  requested number of processors reduced to:  20 ShMem   1 Linda.
 NMat=     1 NSing=     1 JSym2X= 2.
 CoulSu:  requested number of processors reduced to:  20 ShMem   1 Linda.
 NMat=     1 NSing=     1 JSym2X= 2.
 CoulSu:  requested number of processors reduced to:  20 ShMem   1 Linda.
 NMat=     1 NSing=     1 JSym2X= 2.
 CoulSu:  requested number of processors reduced to:  20 ShMem   1 Linda.
 NMat=     1 NSing=     1 JSym2X= 2.
 CoulSu:  requested number of processors reduced to:  20 ShMem   1 Linda.
 NMat=     1 NSing=     1 JSym2X= 2.
 CoulSu:  requested number of processors reduced to:  20 ShMem   1 Linda.
 NMat=     1 NSing=     1 JSym2X= 2.
 CoulSu:  requested number of processors reduced to:  20 ShMem   1 Linda.
 NMat=     1 NSing=     1 JSym2X= 2.
 CoulSu:  requested number of processors reduced to:  20 ShMem   1 Linda.
 New state      1 was old state     12
 Excitation Energies [eV] at current iteration:
 Root      1 :     4.573332260694052
 Root      2 :     4.573654160883043
 Root      3 :     5.891047060172555
 Root      4 :     6.190924216806976
 Root      5 :     6.190924216913164
 Root      6 :     7.186568716486083
 Root      7 :     7.186568716502663
 Root      8 :     7.562636550975633
 Root      9 :     7.664200962654514
 Root     10 :     7.664226061751164
 Root     11 :     7.907599109949419
 Root     12 :    13.885089221862290
 Iteration     2 Dimension    24 NMult    12 NNew     12
 Estimated number of processors is:   20
 CISAX will form     1 AO SS matrices at one time.
 NMat=     1 NSing=     1 JSym2X= 2.
 CoulSu:  requested number of processors reduced to:  20 ShMem   1 Linda.
 NMat=     1 NSing=     1 JSym2X= 2.
 CoulSu:  requested number of processors reduced to:  20 ShMem   1 Linda.
 NMat=     1 NSing=     1 JSym2X= 2.
 CoulSu:  requested number of processors reduced to:  20 ShMem   1 Linda.
 NMat=     1 NSing=     1 JSym2X= 2.
 CoulSu:  requested number of processors reduced to:  20 ShMem   1 Linda.
 NMat=     1 NSing=     1 JSym2X= 2.
 CoulSu:  requested number of processors reduced to:  20 ShMem   1 Linda.
 NMat=     1 NSing=     1 JSym2X= 2.
 CoulSu:  requested number of processors reduced to:  20 ShMem   1 Linda.
 NMat=     1 NSing=     1 JSym2X= 2.
 CoulSu:  requested number of processors reduced to:  20 ShMem   1 Linda.
 NMat=     1 NSing=     1 JSym2X= 2.
 CoulSu:  requested number of processors reduced to:  20 ShMem   1 Linda.
 NMat=     1 NSing=     1 JSym2X= 2.
 CoulSu:  requested number of processors reduced to:  20 ShMem   1 Linda.
 NMat=     1 NSing=     1 JSym2X= 2.
 CoulSu:  requested number of processors reduced to:  20 ShMem   1 Linda.
 NMat=     1 NSing=     1 JSym2X= 2.
 CoulSu:  requested number of processors reduced to:  20 ShMem   1 Linda.
 NMat=     1 NSing=     1 JSym2X= 2.
 CoulSu:  requested number of processors reduced to:  20 ShMem   1 Linda.
 Root      1 not converged, maximum delta is    0.048026909402601
 Excitation Energies [eV] at current iteration:
 Root      1 :     4.153351204627544   Change is   -0.419981056066507
 Root      2 :     4.153894631366727   Change is   -0.419759529516317
 Root      3 :     5.397635254665481   Change is   -0.793288962247683
 Root      4 :     5.397635254691420   Change is   -0.793288962115556
 Root      5 :     5.800292971632206   Change is   -0.090754088540349
 Root      6 :     6.967507576232062   Change is   -0.219061140254021
 Root      7 :     6.967507576236915   Change is   -0.219061140265747
 Root      8 :     7.495316076488863   Change is   -0.067320474486769
 Root      9 :     7.533731786699151   Change is   -0.130469175955364
 Root     10 :     7.533840859991704   Change is   -0.130385201759461
 Root     11 :     7.630950894671043   Change is   -0.276648215278375
 Root     12 :    10.161619155945540   Change is   -3.723470065916754
 Iteration     3 Dimension    27 NMult    24 NNew      3
 Estimated number of processors is:   20
 CISAX will form     1 AO SS matrices at one time.
 NMat=     1 NSing=     1 JSym2X= 2.
 CoulSu:  requested number of processors reduced to:  20 ShMem   1 Linda.
 NMat=     1 NSing=     1 JSym2X= 2.
 CoulSu:  requested number of processors reduced to:  20 ShMem   1 Linda.
 NMat=     1 NSing=     1 JSym2X= 2.
 CoulSu:  requested number of processors reduced to:  20 ShMem   1 Linda.
 Root      1 not converged, maximum delta is    0.006405202245511
 Excitation Energies [eV] at current iteration:
 Root      1 :     4.141901243012163   Change is   -0.011449961615381
 Root      2 :     4.142445128977063   Change is   -0.011449502389664
 Root      3 :     5.139339518493620   Change is   -0.258295736171861
 Iteration     4 Dimension    30 NMult    27 NNew      3
 Estimated number of processors is:   20
 CISAX will form     1 AO SS matrices at one time.
 NMat=     1 NSing=     1 JSym2X= 2.
 CoulSu:  requested number of processors reduced to:  20 ShMem   1 Linda.
 NMat=     1 NSing=     1 JSym2X= 2.
 CoulSu:  requested number of processors reduced to:  20 ShMem   1 Linda.
 NMat=     1 NSing=     1 JSym2X= 2.
 CoulSu:  requested number of processors reduced to:  20 ShMem   1 Linda.
 Root      1 not converged, maximum delta is    0.001421311761396
 Excitation Energies [eV] at current iteration:
 Root      1 :     4.141576806897043   Change is   -0.000324436115120
 Root      2 :     4.142120248608204   Change is   -0.000324880368859
 Root      3 :     5.123099875745627   Change is   -0.016239642747993
 Iteration     5 Dimension    33 NMult    30 NNew      3
 Estimated number of processors is:   20
 CISAX will form     1 AO SS matrices at one time.
 NMat=     1 NSing=     1 JSym2X= 2.
 CoulSu:  requested number of processors reduced to:  20 ShMem   1 Linda.
 NMat=     1 NSing=     1 JSym2X= 2.
 CoulSu:  requested number of processors reduced to:  20 ShMem   1 Linda.
 NMat=     1 NSing=     1 JSym2X= 2.
 CoulSu:  requested number of processors reduced to:  20 ShMem   1 Linda.
 Root      1 has converged.
 Excitation Energies [eV] at current iteration:
 Root      1 :     4.141566173170134   Change is   -0.000010633726909
 Root      2 :     4.142109605689121   Change is   -0.000010642919084
 Root      3 :     5.122370057413289   Change is   -0.000729818332338
 Convergence achieved on expansion vectors.
 ***********************************************************************
 Stability analysis using <AA,BB:AA,BB> singles matrix:
 ***********************************************************************
 1PDM for each excited state written to RWF  633
 Ground to excited state transition densities written to RWF  633

 Eigenvectors of the stability matrix:
 
 Excited state symmetry could not be determined.
 Eigenvector   1:  3.011-?Sym  Eigenvalue= 0.1521998  <S**2>=2.016
     10B -> 12B        0.12894
     10B -> 13B       -0.68339
     11B -> 12B        0.68339
     11B -> 13B        0.12894
 The wavefunction is stable under the perturbations considered.
 Leave Link  914 at Sat Apr 17 21:04:39 2021, MaxMem=   104857600 cpu:            1819.9 elap:              51.0
 (Enter /s/ls4/users/knvvv/bin/g16sse/l508.exe)
 The wavefunction is already stable.
 Leave Link  508 at Sat Apr 17 21:04:39 2021, MaxMem=   104857600 cpu:               2.2 elap:               0.1
 (Enter /s/ls4/users/knvvv/bin/g16sse/l601.exe)
 Copying SCF densities to generalized density rwf, IOpCl= 1 IROHF=0.

 **********************************************************************

            Population analysis using the SCF density.

 **********************************************************************

 Orbital symmetries:
 Alpha Orbitals:
       Occupied  (SG) (SG) (SG) (PI) (PI) (SG) (SG) (SG) (PI) (PI)
                 (SG) (PI) (PI)
       Virtual   (SG) (SG) (PI) (PI) (SG) (PI) (PI) (SG) (DLTA)
                 (DLTA) (PI) (PI) (SG) (SG) (PI) (PI) (SG) (DLTA)
                 (DLTA) (SG) (DLTA) (DLTA) (PI) (PI) (PI) (PI)
                 (SG) (SG) (PI) (PI) (SG) (SG) (PHI) (PHI) (PI)
                 (PI) (DLTA) (DLTA) (PI) (PI) (DLTA) (DLTA) (SG)
                 (SG) (PI) (PI) (DLTA) (DLTA) (SG) (PI) (PI) (SG)
                 (PI) (PI) (SG) (SG) (DLTA) (DLTA) (PHI) (PHI)
                 (PI) (PI) (SG) (DLTA) (DLTA) (?A) (?A) (PI) (PI)
                 (PHI) (PHI) (DLTA) (DLTA) (SG) (PHI) (PHI) (SG)
                 (PI) (PI) (PI) (PI) (SG) (DLTA) (DLTA) (SG) (DLTA)
                 (DLTA) (PI) (PI) (SG) (PI) (PI) (SG) (PI) (PI)
                 (SG) (SG) (SG) (DLTA) (DLTA) (PI) (PI) (?A) (?A)
                 (PHI) (PHI) (DLTA) (DLTA) (PI) (PI) (SG) (PHI)
                 (PHI) (DLTA) (DLTA) (PI) (PI) (SG) (DLTA) (DLTA)
                 (PI) (PI) (SG) (SG) (SG) (PI) (PI) (SG) (SG) (SG)
                 (SG) (SG)
 Beta  Orbitals:
       Occupied  (SG) (SG) (SG) (SG) (PI) (PI) (SG) (SG) (SG) (PI)
                 (PI)
       Virtual   (PI) (PI) (SG) (SG) (PI) (PI) (SG) (SG) (PI) (PI)
                 (DLTA) (DLTA) (PI) (PI) (SG) (SG) (PI) (PI) (SG)
                 (DLTA) (DLTA) (SG) (DLTA) (DLTA) (PI) (PI) (PI)
                 (PI) (SG) (SG) (PI) (PI) (SG) (SG) (PHI) (PHI)
                 (DLTA) (DLTA) (PI) (PI) (PI) (PI) (DLTA) (DLTA)
                 (SG) (SG) (PI) (PI) (DLTA) (DLTA) (SG) (PI) (PI)
                 (SG) (PI) (PI) (SG) (SG) (DLTA) (DLTA) (PI) (PI)
                 (PHI) (PHI) (SG) (DLTA) (DLTA) (?A) (?A) (PI)
                 (PI) (PHI) (PHI) (DLTA) (DLTA) (SG) (PHI) (PHI)
                 (SG) (PI) (PI) (PI) (PI) (SG) (DLTA) (DLTA) (SG)
                 (DLTA) (DLTA) (PI) (PI) (SG) (PI) (PI) (SG) (PI)
                 (PI) (SG) (SG) (SG) (PI) (PI) (DLTA) (DLTA) (PHI)
                 (PHI) (?A) (?A) (DLTA) (DLTA) (PI) (PI) (SG) (PHI)
                 (PHI) (DLTA) (DLTA) (PI) (PI) (SG) (DLTA) (DLTA)
                 (PI) (PI) (SG) (SG) (SG) (PI) (PI) (SG) (SG) (SG)
                 (SG) (SG)
 The electronic state is 3-SG.
 Alpha  occ. eigenvalues --  -90.00328 -19.70401  -8.34969  -6.27588  -6.27588
 Alpha  occ. eigenvalues --   -6.26981  -1.21792  -0.78129  -0.54756  -0.54756
 Alpha  occ. eigenvalues --   -0.53531  -0.32726  -0.32726
 Alpha virt. eigenvalues --    0.00445   0.01726   0.02257   0.02257   0.06562
 Alpha virt. eigenvalues --    0.09264   0.09264   0.09480   0.13273   0.13274
 Alpha virt. eigenvalues --    0.20064   0.20064   0.20505   0.23080   0.27819
 Alpha virt. eigenvalues --    0.27819   0.30761   0.35347   0.35350   0.36988
 Alpha virt. eigenvalues --    0.40396   0.40396   0.41706   0.41706   0.45249
 Alpha virt. eigenvalues --    0.45249   0.58563   0.61044   0.61838   0.61838
 Alpha virt. eigenvalues --    0.68726   0.94071   1.02549   1.02549   1.02693
 Alpha virt. eigenvalues --    1.02693   1.04852   1.04853   1.06158   1.06158
 Alpha virt. eigenvalues --    1.08896   1.08909   1.10686   1.24758   1.34874
 Alpha virt. eigenvalues --    1.34874   1.38348   1.38353   1.49156   1.51207
 Alpha virt. eigenvalues --    1.51207   1.63226   1.83798   1.83798   1.96670
 Alpha virt. eigenvalues --    2.30670   2.66087   2.66104   2.75735   2.75735
 Alpha virt. eigenvalues --    2.75986   2.75986   2.78615   2.79405   2.79406
 Alpha virt. eigenvalues --    2.86386   2.86386   2.96637   2.96637   3.02575
 Alpha virt. eigenvalues --    3.02575   3.11787   3.11796   3.20763   3.27698
 Alpha virt. eigenvalues --    3.27698   3.38383   3.44179   3.44179   3.49683
 Alpha virt. eigenvalues --    3.49683   3.63640   3.84194   3.84195   3.96922
 Alpha virt. eigenvalues --    4.03463   4.03465   4.24864   4.24864   4.70313
 Alpha virt. eigenvalues --    4.80928   4.80928   4.97545   5.28672   5.28672
 Alpha virt. eigenvalues --    6.81846   7.26311   8.52418   8.64766   8.64770
 Alpha virt. eigenvalues --    8.64919   8.64919   8.73748   8.73756   8.75090
 Alpha virt. eigenvalues --    8.75090   8.91224   8.91225   9.28697   9.28697
 Alpha virt. eigenvalues --    9.73811  10.74892  10.74892  10.98116  10.98119
 Alpha virt. eigenvalues --   11.53685  11.53685  11.61571  11.90673  11.90675
 Alpha virt. eigenvalues --   12.08736  12.08736  12.57295  13.68606  24.16400
 Alpha virt. eigenvalues --   28.86113  28.86113  29.38455  47.78364  83.89286
 Alpha virt. eigenvalues --  250.83595 449.53814
  Beta  occ. eigenvalues --  -89.99101 -19.68630  -8.34560  -6.26628  -6.25652
  Beta  occ. eigenvalues --   -6.25652  -1.16712  -0.70416  -0.49461  -0.45703
  Beta  occ. eigenvalues --   -0.45703
  Beta virt. eigenvalues --   -0.09090  -0.09090   0.01217   0.01713   0.04103
  Beta virt. eigenvalues --    0.04103   0.07142   0.10276   0.10469   0.10469
  Beta virt. eigenvalues --    0.11446   0.11446   0.17841   0.17841   0.21105
  Beta virt. eigenvalues --    0.22380   0.25806   0.25806   0.30325   0.35786
  Beta virt. eigenvalues --    0.35787   0.37062   0.42494   0.42494   0.42780
  Beta virt. eigenvalues --    0.42780   0.47540   0.47540   0.58458   0.60446
  Beta virt. eigenvalues --    0.61145   0.61145   0.68744   0.94667   1.03084
  Beta virt. eigenvalues --    1.03084   1.05249   1.05250   1.05437   1.05437
  Beta virt. eigenvalues --    1.07632   1.07632   1.10371   1.10371   1.11249
  Beta virt. eigenvalues --    1.24823   1.35526   1.35526   1.39985   1.39985
  Beta virt. eigenvalues --    1.49631   1.54350   1.54350   1.63725   1.84453
  Beta virt. eigenvalues --    1.84453   1.97836   2.32642   2.70786   2.70791
  Beta virt. eigenvalues --    2.76183   2.76183   2.78187   2.78187   2.80664
  Beta virt. eigenvalues --    2.81544   2.81550   2.91941   2.91950   2.98720
  Beta virt. eigenvalues --    2.98720   3.13638   3.13638   3.19232   3.19235
  Beta virt. eigenvalues --    3.22482   3.29725   3.29725   3.41628   3.46859
  Beta virt. eigenvalues --    3.46859   3.54926   3.54926   3.66426   3.86597
  Beta virt. eigenvalues --    3.86599   3.97686   4.06163   4.06163   4.26317
  Beta virt. eigenvalues --    4.26317   4.72417   4.82712   4.82712   4.96249
  Beta virt. eigenvalues --    5.32221   5.32221   6.84019   7.30495   8.54334
  Beta virt. eigenvalues --    8.68731   8.68731   8.73208   8.73210   8.75919
  Beta virt. eigenvalues --    8.75919   8.77205   8.77207   8.90618   8.90618
  Beta virt. eigenvalues --    9.29148   9.29148   9.75648  10.83807  10.83807
  Beta virt. eigenvalues --   11.02909  11.02910  11.56792  11.56792  11.63782
  Beta virt. eigenvalues --   11.98958  11.98960  12.14094  12.14094  12.60856
  Beta virt. eigenvalues --   13.81114  24.25303  28.92366  28.92366  29.40223
  Beta virt. eigenvalues --   47.81356  83.92945 250.79752 449.52842
          Condensed to atoms (all electrons):
               1          2
     1  S   15.395277   0.275296
     2  O    0.275296   8.054131
          Atomic-Atomic Spin Densities.
               1          2
     1  S    1.630750  -0.305711
     2  O   -0.305711   0.980671
 Mulliken charges and spin densities:
               1          2
     1  S    0.329427   1.325040
     2  O   -0.329427   0.674960
 Sum of Mulliken charges =  -0.00000   2.00000
 Mulliken charges and spin densities with hydrogens summed into heavy atoms:
               1          2
     1  S    0.329427   1.325040
     2  O   -0.329427   0.674960
 Electronic spatial extent (au):  <R**2>=             81.9483
 Charge=             -0.0000 electrons
 Dipole moment (field-independent basis, Debye):
    X=              0.0000    Y=             -0.0000    Z=              1.6556  Tot=              1.6556
 Quadrupole moment (field-independent basis, Debye-Ang):
   XX=            -17.6162   YY=            -17.6162   ZZ=            -18.4071
   XY=             -0.0000   XZ=              0.0000   YZ=             -0.0000
 Traceless Quadrupole moment (field-independent basis, Debye-Ang):
   XX=              0.2636   YY=              0.2636   ZZ=             -0.5273
   XY=             -0.0000   XZ=              0.0000   YZ=             -0.0000
 Octapole moment (field-independent basis, Debye-Ang**2):
  XXX=              0.0000  YYY=             -0.0000  ZZZ=              0.4567  XYY=              0.0000
  XXY=              0.0000  XXZ=             -1.0757  XZZ=              0.0000  YZZ=             -0.0000
  YYZ=             -1.0757  XYZ=             -0.0000
 Hexadecapole moment (field-independent basis, Debye-Ang**3):
 XXXX=            -20.1179 YYYY=            -20.1179 ZZZZ=            -68.0472 XXXY=             -0.0000
 XXXZ=              0.0000 YYYX=             -0.0000 YYYZ=             -0.0000 ZZZX=              0.0000
 ZZZY=             -0.0000 XXYY=             -6.7060 XXZZ=            -15.2942 YYZZ=            -15.2942
 XXYZ=              0.0000 YYXZ=              0.0000 ZZXY=             -0.0000
 N-N= 4.557530606719D+01 E-N=-1.216021170503D+03  KE= 4.725807488611D+02
                          Isotropic Fermi Contact Couplings
        Atom                 a.u.       MegaHertz       Gauss      10(-4) cm-1
     1  S(33)              0.06049      10.38771       3.70659       3.46497
     2  O(17)              0.12694     -38.47466     -13.72872     -12.83376
 PrsmSu:  requested number of processors reduced to:  21 ShMem   1 Linda.
 --------------------------------------------------------
       Center         ----  Spin Dipole Couplings  ----
                      3XX-RR        3YY-RR        3ZZ-RR
 --------------------------------------------------------
     1   Atom        1.587035      1.587035     -3.174069
     2   Atom        0.930701      0.930701     -1.861402
 --------------------------------------------------------
                        XY            XZ            YZ
 --------------------------------------------------------
     1   Atom        0.000000      0.000000      0.000000
     2   Atom        0.000000      0.000000      0.000000
 --------------------------------------------------------


 ---------------------------------------------------------------------------------
              Anisotropic Spin Dipole Couplings in Principal Axis System
 ---------------------------------------------------------------------------------

       Atom             a.u.   MegaHertz   Gauss  10(-4) cm-1        Axes

              Baa    -3.1741  -130.134   -46.435   -43.408  0.0000  0.0000  1.0000
     1 S(33)  Bbb     1.5870    65.067    23.218    21.704  1.0000  0.0000  0.0000
              Bcc     1.5870    65.067    23.218    21.704 -0.0000  1.0000  0.0000
 
              Baa    -1.8614   134.690    48.061    44.928  0.0000  0.0000  1.0000
     2 O(17)  Bbb     0.9307   -67.345   -24.030   -22.464 -0.0000  1.0000  0.0000
              Bcc     0.9307   -67.345   -24.030   -22.464  1.0000  0.0000  0.0000
 

 ---------------------------------------------------------------------------------

 PrsmSu:  requested number of processors reduced to:  21 ShMem   1 Linda.
 No NMR shielding tensors so no spin-rotation constants.
 Leave Link  601 at Sat Apr 17 21:04:43 2021, MaxMem=   104857600 cpu:             167.2 elap:               3.8
 (Enter /s/ls4/users/knvvv/bin/g16sse/l9999.exe)

 Test job not archived.
 1\1\GINC-N151\Stability\UM062X\Gen\O1S1(3)\KNVVV\17-Apr-2021\0\\#P M06
 2X/GEN Integral=UltraFineGrid SCF=NoSymm Stable=(RExt, Opt) IOp(1/33=1
 )\\Database calculations.\\0,3\S,0,0.,0.,0.\O,0,0.,0.,1.48621455\\Vers
 ion=ES64L-G16RevA.03\State=3-SG\HF=-473.3797056\S2=2.013016\S2-1=0.\S2
 A=2.00008\RMSD=7.630e-09\Dipole=0.,0.,-0.6513694\Quadrupole=0.1960025,
 0.1960025,-0.392005,0.,0.,0.\PG=C*V [C*(O1S1)]\\@


 UNLESS WE CHANGE DIRECTIONS, WE WILL WIND UP WHERE WE ARE HEADED.
     -- CONFUCIUS
 Job cpu time:       0 days  2 hours 33 minutes 21.4 seconds.
 Elapsed time:       0 days  0 hours  3 minutes 33.5 seconds.
 File lengths (MBytes):  RWF=    101 Int=      0 D2E=      0 Chk=      4 Scr=      1
 Normal termination of Gaussian 16 at Sat Apr 17 21:04:43 2021.
