 Entering Gaussian System, Link 0=/s/ls4/users/knvvv/bin/g16sse/g16
 Input=data/database/M062X--def2-QZVP--MB16-43_O2.gjf
 Output=data/database/M062X--def2-QZVP--MB16-43_O2.log
 Initial command:
 /s/ls4/users/knvvv/bin/g16sse/l1.exe "/s/ls4/users/knvvv/bin/scratch/Gau-48697.inp" -scrdir="/s/ls4/users/knvvv/bin/scratch/"
 Entering Link 1 = /s/ls4/users/knvvv/bin/g16sse/l1.exe PID=     48698.
  
 Copyright (c) 1988,1990,1992,1993,1995,1998,2003,2009,2016,
            Gaussian, Inc.  All Rights Reserved.
  
 This is part of the Gaussian(R) 16 program.  It is based on
 the Gaussian(R) 09 system (copyright 2009, Gaussian, Inc.),
 the Gaussian(R) 03 system (copyright 2003, Gaussian, Inc.),
 the Gaussian(R) 98 system (copyright 1998, Gaussian, Inc.),
 the Gaussian(R) 94 system (copyright 1995, Gaussian, Inc.),
 the Gaussian 92(TM) system (copyright 1992, Gaussian, Inc.),
 the Gaussian 90(TM) system (copyright 1990, Gaussian, Inc.),
 the Gaussian 88(TM) system (copyright 1988, Gaussian, Inc.),
 the Gaussian 86(TM) system (copyright 1986, Carnegie Mellon
 University), and the Gaussian 82(TM) system (copyright 1983,
 Carnegie Mellon University). Gaussian is a federally registered
 trademark of Gaussian, Inc.
  
 This software contains proprietary and confidential information,
 including trade secrets, belonging to Gaussian, Inc.
  
 This software is provided under written license and may be
 used, copied, transmitted, or stored only in accord with that
 written license.
  
 The following legend is applicable only to US Government
 contracts under FAR:
  
                    RESTRICTED RIGHTS LEGEND
  
 Use, reproduction and disclosure by the US Government is
 subject to restrictions as set forth in subparagraphs (a)
 and (c) of the Commercial Computer Software - Restricted
 Rights clause in FAR 52.227-19.
  
 Gaussian, Inc.
 340 Quinnipiac St., Bldg. 40, Wallingford CT 06492
  
  
 ---------------------------------------------------------------
 Warning -- This program may not be used in any manner that
 competes with the business of Gaussian, Inc. or will provide
 assistance to any competitor of Gaussian, Inc.  The licensee
 of this program is prohibited from giving any competitor of
 Gaussian, Inc. access to this program.  By using this program,
 the user acknowledges that Gaussian, Inc. is engaged in the
 business of creating and licensing software in the field of
 computational chemistry and represents and warrants to the
 licensee that it is not a competitor of Gaussian, Inc. and that
 it will not use this program in any manner prohibited above.
 ---------------------------------------------------------------
  

 Cite this work as:
 Gaussian 16, Revision A.03,
 M. J. Frisch, G. W. Trucks, H. B. Schlegel, G. E. Scuseria, 
 M. A. Robb, J. R. Cheeseman, G. Scalmani, V. Barone, 
 G. A. Petersson, H. Nakatsuji, X. Li, M. Caricato, A. V. Marenich, 
 J. Bloino, B. G. Janesko, R. Gomperts, B. Mennucci, H. P. Hratchian, 
 J. V. Ortiz, A. F. Izmaylov, J. L. Sonnenberg, D. Williams-Young, 
 F. Ding, F. Lipparini, F. Egidi, J. Goings, B. Peng, A. Petrone, 
 T. Henderson, D. Ranasinghe, V. G. Zakrzewski, J. Gao, N. Rega, 
 G. Zheng, W. Liang, M. Hada, M. Ehara, K. Toyota, R. Fukuda, 
 J. Hasegawa, M. Ishida, T. Nakajima, Y. Honda, O. Kitao, H. Nakai, 
 T. Vreven, K. Throssell, J. A. Montgomery, Jr., J. E. Peralta, 
 F. Ogliaro, M. J. Bearpark, J. J. Heyd, E. N. Brothers, K. N. Kudin, 
 V. N. Staroverov, T. A. Keith, R. Kobayashi, J. Normand, 
 K. Raghavachari, A. P. Rendell, J. C. Burant, S. S. Iyengar, 
 J. Tomasi, M. Cossi, J. M. Millam, M. Klene, C. Adamo, R. Cammi, 
 J. W. Ochterski, R. L. Martin, K. Morokuma, O. Farkas, 
 J. B. Foresman, and D. J. Fox, Gaussian, Inc., Wallingford CT, 2016.
 
 ******************************************
 Gaussian 16:  ES64L-G16RevA.03 25-Dec-2016
                17-Apr-2021 
 ******************************************
 %RWF=temp9_12361,70GB
 %nprocshared=48
 Will use up to   48 processors via shared memory.
 Default route: MaxDisk=80GB
 ----------------------------------------------------------------------
 #P M062X/Def2QZVP Integral=UltraFineGrid SCF=NoSymm Stable=(RExt, Opt)
  IOp(1/33=1)
 ----------------------------------------------------------------------
 1/33=1,38=1,172=1/1;
 2/12=2,17=6,18=5,40=1/2;
 3/5=45,7=101,11=2,25=1,30=1,74=-55,75=-5/1,2,3;
 4/9=2/1;
 5/5=2,38=5/2;
 6/7=2,8=2,9=2,10=2,28=1/1;
 8/6=1,10=90,11=11/1;
 9/8=-3,42=1,46=1/14;
 5/5=2,8=3,17=40,38=5/8(-2);
 6/7=2,8=2,9=2,10=2,28=1/1;
 99/5=1,9=1/99;
 Leave Link    1 at Sat Apr 17 05:24:09 2021, MaxMem=           0 cpu:              10.9 elap:               0.2
 (Enter /s/ls4/users/knvvv/bin/g16sse/l101.exe)
 ONIOM data not found on unit 2.
 ----------------------
 Database calculations.
 ----------------------
 TstMul:  ICh=     0
 TstMul:  Mul=     3
 TstMul:  ICh=     0
 TstMul:  Mul=     3
 Symbolic Z-matrix:
 Charge =  0 Multiplicity = 3
 O                     0.        0.       -0.60969 
 O                     0.        0.        0.60969 
 
 RdStrC is calling ZToCFu for IStruc=1 NZ=     2.
 PrtBox:  NBox=     1 Levels=  1 BoxLen=    8.00 SMaxX=        2.30
          Shift=            0.000000            0.000000            1.152154
 Box      1 Number                   0 centers from      1 to      2:
 After GenITR:
 ITRead=  0  0
 MicOpt= -1 -1
 ITRead=  0  0
 MicOpt= -1 -1
 NAtoms=      2 NQM=        2 NQMF=       0 NMMI=      0 NMMIF=      0
                NMic=       0 NMicF=      0.
                    Isotopes and Nuclear Properties:
 (Nuclear quadrupole moments (NQMom) in fm**2, nuclear magnetic moments (NMagM)
  in nuclear magnetons)

  Atom         1           2
 IAtWgt=          16          16
 AtmWgt=  15.9949146  15.9949146
 NucSpn=           0           0
 AtZEff=  -0.0000000  -0.0000000
 NQMom=    0.0000000   0.0000000
 NMagM=    0.0000000   0.0000000
 AtZNuc=   8.0000000   8.0000000
 No MM parameters found.
 Leave Link  101 at Sat Apr 17 05:24:09 2021, MaxMem=   104857600 cpu:               6.5 elap:               0.2
 (Enter /s/ls4/users/knvvv/bin/g16sse/l202.exe)
                          Input orientation:                          
 ---------------------------------------------------------------------
 Center     Atomic      Atomic             Coordinates (Angstroms)
 Number     Number       Type             X           Y           Z
 ---------------------------------------------------------------------
      1          8           0        0.000000    0.000000   -0.609694
      2          8           0        0.000000    0.000000    0.609694
 ---------------------------------------------------------------------
 Stoichiometry    O2(3)
 Framework group  D*H[C*(O.O)]
 Deg. of freedom     1
 Full point group                 D*H     NOp   8
 Largest Abelian subgroup         D2H     NOp   8
 Largest concise Abelian subgroup C2      NOp   2
                         Standard orientation:                         
 ---------------------------------------------------------------------
 Center     Atomic      Atomic             Coordinates (Angstroms)
 Number     Number       Type             X           Y           Z
 ---------------------------------------------------------------------
      1          8           0        0.000000    0.000000    0.609694
      2          8           0        0.000000    0.000000   -0.609694
 ---------------------------------------------------------------------
 Rotational constants (GHZ):           0.0000000          42.4993362          42.4993362
 Leave Link  202 at Sat Apr 17 05:24:09 2021, MaxMem=   104857600 cpu:               8.4 elap:               0.2
 (Enter /s/ls4/users/knvvv/bin/g16sse/l301.exe)
 Standard basis: def2QZVP (5D, 7F)
 Ernie: Thresh=  0.10000D-02 Tol=  0.10000D-05 Strict=F.
 There are    32 symmetry adapted cartesian basis functions of AG  symmetry.
 There are     8 symmetry adapted cartesian basis functions of B1G symmetry.
 There are    16 symmetry adapted cartesian basis functions of B2G symmetry.
 There are    16 symmetry adapted cartesian basis functions of B3G symmetry.
 There are     8 symmetry adapted cartesian basis functions of AU  symmetry.
 There are    32 symmetry adapted cartesian basis functions of B1U symmetry.
 There are    16 symmetry adapted cartesian basis functions of B2U symmetry.
 There are    16 symmetry adapted cartesian basis functions of B3U symmetry.
 There are    24 symmetry adapted basis functions of AG  symmetry.
 There are     7 symmetry adapted basis functions of B1G symmetry.
 There are    13 symmetry adapted basis functions of B2G symmetry.
 There are    13 symmetry adapted basis functions of B3G symmetry.
 There are     7 symmetry adapted basis functions of AU  symmetry.
 There are    24 symmetry adapted basis functions of B1U symmetry.
 There are    13 symmetry adapted basis functions of B2U symmetry.
 There are    13 symmetry adapted basis functions of B3U symmetry.
   114 basis functions,   184 primitive gaussians,   144 cartesian basis functions
     9 alpha electrons        7 beta electrons
       nuclear repulsion energy        27.7740713152 Hartrees.
 IExCor= 4336 DFT=T Ex+Corr=M062X ExCW=0 ScaHFX=  0.540000
 ScaDFX=  1.000000  1.000000  1.000000  1.000000 ScalE2=  1.000000  1.000000
 IRadAn=      5 IRanWt=     -1 IRanGd=            0 ICorTp=0 IEmpDi=  4
 NAtoms=    2 NActive=    2 NUniq=    1 SFac= 4.00D+00 NAtFMM=   60 NAOKFM=F Big=F
 Integral buffers will be    131072 words long.
 Raffenetti 2 integral format.
 Two-electron integral symmetry is turned on.
 Leave Link  301 at Sat Apr 17 05:24:09 2021, MaxMem=   104857600 cpu:               4.4 elap:               0.1
 (Enter /s/ls4/users/knvvv/bin/g16sse/l302.exe)
 NPDir=0 NMtPBC=     1 NCelOv=     1 NCel=       1 NClECP=     1 NCelD=      1
         NCelK=      1 NCelE2=     1 NClLst=     1 CellRange=     0.0.
 One-electron integrals computed using PRISM.
 One-electron integral symmetry used in STVInt
 PrsmSu:  requested number of processors reduced to:   4 ShMem   1 Linda.
 PrsmSu:  requested number of processors reduced to:  21 ShMem   1 Linda.
   8 Symmetry operations used in ECPInt.
 ECPInt:  NShTT=     595 NPrTT=    1789 LenC2=     593 LenP2D=    1630.
 LDataN:  DoStor=T MaxTD1= 8 Len=  415
 Number of processors reduced to  42 by ecpmxn.
 NBasis=   114 RedAO= T EigKep=  5.73D-04  NBF=    24     7    13    13     7    24    13    13
 NBsUse=   114 1.00D-06 EigRej= -1.00D+00 NBFU=    24     7    13    13     7    24    13    13
 Precomputing XC quadrature grid using
 IXCGrd= 4 IRadAn=           5 IRanWt=          -1 IRanGd=           0 AccXCQ= 0.00D+00.
 Generated NRdTot=       0 NPtTot=           0 NUsed=           0 NTot=          32
 NSgBfM=   144   144   144   144   144 MxSgAt=     2 MxSgA2=     2.
 Leave Link  302 at Sat Apr 17 05:24:10 2021, MaxMem=   104857600 cpu:              14.3 elap:               0.4
 (Enter /s/ls4/users/knvvv/bin/g16sse/l303.exe)
 DipDrv:  MaxL=1.
 Leave Link  303 at Sat Apr 17 05:24:10 2021, MaxMem=   104857600 cpu:              28.3 elap:               0.6
 (Enter /s/ls4/users/knvvv/bin/g16sse/l401.exe)
 SCF N**3 symmetry information disabled.
 ExpMin= 1.29D-01 ExpMax= 1.17D+05 ExpMxC= 1.13D+03 IAcc=3 IRadAn=         5 AccDes= 0.00D+00
 Harris functional with IExCor= 1009 and IRadAn=       5 diagonalized for initial guess.
 HarFok:  IExCor= 1009 AccDes= 0.00D+00 IRadAn=         5 IDoV= 1 UseB2=F ITyADJ=14
 ICtDFT=  3500011 ScaDFX=  1.000000  1.000000  1.000000  1.000000
 FoFCou: FMM=F IPFlag=           0 FMFlag=      100000 FMFlg1=           0
         NFxFlg=           0 DoJE=T BraDBF=F KetDBF=T FulRan=T
         wScrn=  0.000000 ICntrl=       500 IOpCl=  0 I1Cent=   200000004 NGrid=           0
         NMat0=    1 NMatS0=      1 NMatT0=    0 NMatD0=    1 NMtDS0=    0 NMtDT0=    0
 Petite list used in FoFCou.
 CoulSu:  requested number of processors reduced to:  21 ShMem   1 Linda.
 CoulSu:  requested number of processors reduced to:  21 ShMem   1 Linda.
 CoulSu:  requested number of processors reduced to:  21 ShMem   1 Linda.
 CoulSu:  requested number of processors reduced to:  21 ShMem   1 Linda.
 Harris En= -150.203597273488    
 JPrj=0 DoOrth=F DoCkMO=F.
 Initial guess orbital symmetries:
 Alpha Orbitals:
       Occupied  (SGG) (SGU) (SGG) (SGU) (SGG) (PIU) (PIU) (PIG)
                 (PIG)
       Virtual   (SGU) (PIU) (PIU) (SGG) (SGU) (PIG) (PIG) (SGG)
                 (SGU) (DLTG) (DLTG) (PIU) (PIU) (DLTU) (DLTU)
                 (SGG) (SGU) (PIU) (PIU) (PIG) (PIG) (PIG) (PIG)
                 (SGG) (SGU) (SGG) (DLTG) (DLTG) (PHIU) (PHIU)
                 (PIU) (PIU) (PHIG) (PHIG) (SGG) (DLTG) (DLTG)
                 (SGU) (DLTU) (DLTU) (PIG) (PIG) (DLTU) (DLTU)
                 (PIU) (PIU) (SGU) (SGU) (PIG) (PIG) (SGG) (PIU)
                 (PIU) (SGG) (PIG) (PIG) (SGU) (DLTG) (DLTG) (PHIU)
                 (PHIU) (PIU) (PIU) (SGG) (?A) (?A) (?B) (?B) (PHIG)
                 (PHIG) (DLTU) (DLTU) (SGU) (PIG) (PIG) (PHIU)
                 (PHIU) (DLTG) (DLTG) (PHIG) (PHIG) (DLTU) (DLTU)
                 (SGG) (SGU) (PIG) (PIG) (PIU) (PIU) (DLTG) (DLTG)
                 (PIU) (PIU) (DLTU) (DLTU) (SGG) (SGU) (PIG) (PIG)
                 (SGG) (SGU) (SGG) (SGU) (SGG) (SGU)
 Beta  Orbitals:
       Occupied  (SGG) (SGU) (SGG) (SGU) (SGG) (PIU) (PIU)
       Virtual   (PIG) (PIG) (SGU) (PIU) (PIU) (SGG) (SGU) (PIG)
                 (PIG) (SGG) (SGU) (DLTG) (DLTG) (PIU) (PIU) (DLTU)
                 (DLTU) (SGG) (SGU) (PIU) (PIU) (PIG) (PIG) (PIG)
                 (PIG) (SGG) (SGU) (SGG) (DLTG) (DLTG) (PHIU) (PHIU)
                 (PIU) (PIU) (PHIG) (PHIG) (SGG) (DLTG) (DLTG)
                 (SGU) (DLTU) (DLTU) (PIG) (PIG) (DLTU) (DLTU)
                 (PIU) (PIU) (SGU) (SGU) (PIG) (PIG) (SGG) (PIU)
                 (PIU) (SGG) (PIG) (PIG) (SGU) (DLTG) (DLTG) (PHIU)
                 (PHIU) (PIU) (PIU) (SGG) (?A) (?A) (?B) (?B) (PHIG)
                 (PHIG) (DLTU) (DLTU) (SGU) (PIG) (PIG) (PHIU)
                 (PHIU) (DLTG) (DLTG) (PHIG) (PHIG) (DLTU) (DLTU)
                 (SGG) (SGU) (PIG) (PIG) (PIU) (PIU) (DLTG) (DLTG)
                 (PIU) (PIU) (DLTU) (DLTU) (SGG) (SGU) (PIG) (PIG)
                 (SGG) (SGU) (SGG) (SGU) (SGG) (SGU)
 The electronic state of the initial guess is 3-SGG.
 Initial guess <Sx>= 0.0000 <Sy>= 0.0000 <Sz>= 1.0000 <S**2>= 2.0000 S= 1.0000
 Leave Link  401 at Sat Apr 17 05:24:14 2021, MaxMem=   104857600 cpu:             139.2 elap:               3.1
 (Enter /s/ls4/users/knvvv/bin/g16sse/l502.exe)
 Keep R1 and R2 ints in memory in symmetry-blocked form, NReq=75745193.
 FoFCou: FMM=F IPFlag=           0 FMFlag=           0 FMFlg1=           0
         NFxFlg=           0 DoJE=F BraDBF=F KetDBF=F FulRan=T
         wScrn=  0.000000 ICntrl=       600 IOpCl=  0 I1Cent=           0 NGrid=           0
         NMat0=    1 NMatS0=   6555 NMatT0=    0 NMatD0=    1 NMtDS0=    0 NMtDT0=    0
 Petite list used in FoFCou.
 CoulSu:  requested number of processors reduced to:  18 ShMem   1 Linda.
 UHF open shell SCF:
 Using DIIS extrapolation, IDIIS=  1040.
 NGot=   104857600 LenX=    99305138 LenY=    99283961
 Requested convergence on RMS density matrix=1.00D-08 within 128 cycles.
 Requested convergence on MAX density matrix=1.00D-06.
 Requested convergence on             energy=1.00D-06.
 No special actions if energy rises.
 Integral accuracy reduced to 1.0D-05 until final iterations.

 Cycle   1  Pass 0  IDiag  1:
 E= -150.316933664190    
 DIIS: error= 5.02D-02 at cycle   1 NSaved=   1.
 NSaved= 1 IEnMin= 1 EnMin= -150.316933664190     IErMin= 1 ErrMin= 5.02D-02
 ErrMax= 5.02D-02  0.00D+00 EMaxC= 1.00D-01 BMatC= 3.32D-01 BMatP= 3.32D-01
 IDIUse=3 WtCom= 4.98D-01 WtEn= 5.02D-01
 Coeff-Com:  0.100D+01
 Coeff-En:   0.100D+01
 Coeff:      0.100D+01
 Gap=     0.579 Goal=   None    Shift=    0.000
 Gap=     0.477 Goal=   None    Shift=    0.000
 GapD=    0.477 DampG=2.000 DampE=0.500 DampFc=1.0000 IDamp=-1.
 RMSDP=9.72D-04 MaxDP=1.84D-02              OVMax= 4.00D-02

 Cycle   2  Pass 0  IDiag  1:
 E= -150.333962547253     Delta-E=       -0.017028883063 Rises=F Damp=F
 DIIS: error= 8.49D-03 at cycle   2 NSaved=   2.
 NSaved= 2 IEnMin= 2 EnMin= -150.333962547253     IErMin= 2 ErrMin= 8.49D-03
 ErrMax= 8.49D-03  0.00D+00 EMaxC= 1.00D-01 BMatC= 8.97D-03 BMatP= 3.32D-01
 IDIUse=3 WtCom= 9.15D-01 WtEn= 8.49D-02
 Coeff-Com:  0.664D-01 0.934D+00
 Coeff-En:   0.000D+00 0.100D+01
 Coeff:      0.608D-01 0.939D+00
 Gap=     0.570 Goal=   None    Shift=    0.000
 Gap=     0.468 Goal=   None    Shift=    0.000
 RMSDP=2.97D-04 MaxDP=1.17D-02 DE=-1.70D-02 OVMax= 1.45D-02

 Cycle   3  Pass 0  IDiag  1:
 E= -150.335336126568     Delta-E=       -0.001373579314 Rises=F Damp=F
 DIIS: error= 2.56D-03 at cycle   3 NSaved=   3.
 NSaved= 3 IEnMin= 3 EnMin= -150.335336126568     IErMin= 3 ErrMin= 2.56D-03
 ErrMax= 2.56D-03  0.00D+00 EMaxC= 1.00D-01 BMatC= 1.08D-03 BMatP= 8.97D-03
 IDIUse=3 WtCom= 9.74D-01 WtEn= 2.56D-02
 Coeff-Com: -0.625D-02 0.203D+00 0.803D+00
 Coeff-En:   0.000D+00 0.000D+00 0.100D+01
 Coeff:     -0.609D-02 0.198D+00 0.809D+00
 Gap=     0.573 Goal=   None    Shift=    0.000
 Gap=     0.470 Goal=   None    Shift=    0.000
 RMSDP=8.24D-05 MaxDP=2.14D-03 DE=-1.37D-03 OVMax= 4.45D-03

 Cycle   4  Pass 0  IDiag  1:
 E= -150.335517913004     Delta-E=       -0.000181786437 Rises=F Damp=F
 DIIS: error= 1.10D-03 at cycle   4 NSaved=   4.
 NSaved= 4 IEnMin= 4 EnMin= -150.335517913004     IErMin= 4 ErrMin= 1.10D-03
 ErrMax= 1.10D-03  0.00D+00 EMaxC= 1.00D-01 BMatC= 8.07D-05 BMatP= 1.08D-03
 IDIUse=3 WtCom= 9.89D-01 WtEn= 1.10D-02
 Coeff-Com: -0.331D-02-0.355D-01 0.730D-01 0.966D+00
 Coeff-En:   0.000D+00 0.000D+00 0.000D+00 0.100D+01
 Coeff:     -0.328D-02-0.351D-01 0.722D-01 0.966D+00
 Gap=     0.571 Goal=   None    Shift=    0.000
 Gap=     0.470 Goal=   None    Shift=    0.000
 RMSDP=3.18D-05 MaxDP=1.16D-03 DE=-1.82D-04 OVMax= 2.03D-03

 Cycle   5  Pass 0  IDiag  1:
 E= -150.335536275982     Delta-E=       -0.000018362977 Rises=F Damp=F
 DIIS: error= 3.07D-04 at cycle   5 NSaved=   5.
 NSaved= 5 IEnMin= 5 EnMin= -150.335536275982     IErMin= 5 ErrMin= 3.07D-04
 ErrMax= 3.07D-04  0.00D+00 EMaxC= 1.00D-01 BMatC= 8.79D-06 BMatP= 8.07D-05
 IDIUse=3 WtCom= 9.97D-01 WtEn= 3.07D-03
 Coeff-Com:  0.585D-04-0.333D-01-0.832D-01 0.212D+00 0.905D+00
 Coeff-En:   0.000D+00 0.000D+00 0.000D+00 0.000D+00 0.100D+01
 Coeff:      0.583D-04-0.332D-01-0.829D-01 0.211D+00 0.905D+00
 Gap=     0.572 Goal=   None    Shift=    0.000
 Gap=     0.470 Goal=   None    Shift=    0.000
 RMSDP=1.28D-05 MaxDP=3.93D-04 DE=-1.84D-05 OVMax= 5.28D-04

 Cycle   6  Pass 0  IDiag  1:
 E= -150.335538142085     Delta-E=       -0.000001866103 Rises=F Damp=F
 DIIS: error= 1.66D-05 at cycle   6 NSaved=   6.
 NSaved= 6 IEnMin= 6 EnMin= -150.335538142085     IErMin= 6 ErrMin= 1.66D-05
 ErrMax= 1.66D-05  0.00D+00 EMaxC= 1.00D-01 BMatC= 1.84D-08 BMatP= 8.79D-06
 IDIUse=1 WtCom= 1.00D+00 WtEn= 0.00D+00
 Coeff-Com:  0.465D-04 0.324D-02 0.748D-02-0.294D-01-0.857D-01 0.110D+01
 Coeff:      0.465D-04 0.324D-02 0.748D-02-0.294D-01-0.857D-01 0.110D+01
 Gap=     0.572 Goal=   None    Shift=    0.000
 Gap=     0.470 Goal=   None    Shift=    0.000
 RMSDP=9.74D-07 MaxDP=3.60D-05 DE=-1.87D-06 OVMax= 3.14D-05

 Initial convergence to 1.0D-05 achieved.  Increase integral accuracy.
 Cycle   7  Pass 1  IDiag  1:
 E= -150.335533339115     Delta-E=        0.000004802970 Rises=F Damp=F
 DIIS: error= 5.57D-05 at cycle   1 NSaved=   1.
 NSaved= 1 IEnMin= 1 EnMin= -150.335533339115     IErMin= 1 ErrMin= 5.57D-05
 ErrMax= 5.57D-05  0.00D+00 EMaxC= 1.00D-01 BMatC= 1.71D-07 BMatP= 1.71D-07
 IDIUse=1 WtCom= 1.00D+00 WtEn= 0.00D+00
 Coeff-Com:  0.100D+01
 Coeff:      0.100D+01
 Gap=     0.572 Goal=   None    Shift=    0.000
 Gap=     0.470 Goal=   None    Shift=    0.000
 RMSDP=9.74D-07 MaxDP=3.60D-05 DE= 4.80D-06 OVMax= 4.02D-05

 Cycle   8  Pass 1  IDiag  1:
 E= -150.335533358055     Delta-E=       -0.000000018939 Rises=F Damp=F
 DIIS: error= 5.40D-06 at cycle   2 NSaved=   2.
 NSaved= 2 IEnMin= 2 EnMin= -150.335533358055     IErMin= 2 ErrMin= 5.40D-06
 ErrMax= 5.40D-06  0.00D+00 EMaxC= 1.00D-01 BMatC= 2.68D-09 BMatP= 1.71D-07
 IDIUse=1 WtCom= 1.00D+00 WtEn= 0.00D+00
 Coeff-Com: -0.218D-01 0.102D+01
 Coeff:     -0.218D-01 0.102D+01
 Gap=     0.572 Goal=   None    Shift=    0.000
 Gap=     0.470 Goal=   None    Shift=    0.000
 RMSDP=2.26D-07 MaxDP=5.59D-06 DE=-1.89D-08 OVMax= 1.16D-05

 Cycle   9  Pass 1  IDiag  1:
 E= -150.335533358478     Delta-E=       -0.000000000424 Rises=F Damp=F
 DIIS: error= 2.57D-06 at cycle   3 NSaved=   3.
 NSaved= 3 IEnMin= 3 EnMin= -150.335533358478     IErMin= 3 ErrMin= 2.57D-06
 ErrMax= 2.57D-06  0.00D+00 EMaxC= 1.00D-01 BMatC= 8.20D-10 BMatP= 2.68D-09
 IDIUse=1 WtCom= 1.00D+00 WtEn= 0.00D+00
 Coeff-Com: -0.188D-01 0.350D+00 0.669D+00
 Coeff:     -0.188D-01 0.350D+00 0.669D+00
 Gap=     0.572 Goal=   None    Shift=    0.000
 Gap=     0.470 Goal=   None    Shift=    0.000
 RMSDP=6.89D-08 MaxDP=1.82D-06 DE=-4.24D-10 OVMax= 3.34D-06

 Cycle  10  Pass 1  IDiag  1:
 E= -150.335533358605     Delta-E=       -0.000000000127 Rises=F Damp=F
 DIIS: error= 4.84D-07 at cycle   4 NSaved=   4.
 NSaved= 4 IEnMin= 4 EnMin= -150.335533358605     IErMin= 4 ErrMin= 4.84D-07
 ErrMax= 4.84D-07  0.00D+00 EMaxC= 1.00D-01 BMatC= 1.87D-11 BMatP= 8.20D-10
 IDIUse=1 WtCom= 1.00D+00 WtEn= 0.00D+00
 Coeff-Com:  0.429D-02-0.124D+00-0.102D+00 0.122D+01
 Coeff:      0.429D-02-0.124D+00-0.102D+00 0.122D+01
 Gap=     0.572 Goal=   None    Shift=    0.000
 Gap=     0.470 Goal=   None    Shift=    0.000
 RMSDP=2.34D-08 MaxDP=8.75D-07 DE=-1.27D-10 OVMax= 1.11D-06

 Cycle  11  Pass 1  IDiag  1:
 E= -150.335533358612     Delta-E=       -0.000000000007 Rises=F Damp=F
 DIIS: error= 5.22D-08 at cycle   5 NSaved=   5.
 NSaved= 5 IEnMin= 5 EnMin= -150.335533358612     IErMin= 5 ErrMin= 5.22D-08
 ErrMax= 5.22D-08  0.00D+00 EMaxC= 1.00D-01 BMatC= 3.40D-13 BMatP= 1.87D-11
 IDIUse=1 WtCom= 1.00D+00 WtEn= 0.00D+00
 Coeff-Com:  0.499D-03-0.100D-01-0.134D-01 0.787D-02 0.102D+01
 Coeff:      0.499D-03-0.100D-01-0.134D-01 0.787D-02 0.102D+01
 Gap=     0.572 Goal=   None    Shift=    0.000
 Gap=     0.470 Goal=   None    Shift=    0.000
 RMSDP=2.96D-09 MaxDP=1.10D-07 DE=-6.79D-12 OVMax= 1.16D-07

 SCF Done:  E(UM062X) =  -150.335533359     A.U. after   11 cycles
            NFock= 11  Conv=0.30D-08     -V/T= 2.0035
 <Sx>= 0.0000 <Sy>= 0.0000 <Sz>= 1.0000 <S**2>= 2.0135 S= 1.0045
 <L.S>= 0.000000000000E+00
 KE= 1.498133371196D+02 PE=-4.110658200369D+02 EE= 8.314287824341D+01
 Annihilation of the first spin contaminant:
 S**2 before annihilation     2.0135,   after     2.0001
 Leave Link  502 at Sat Apr 17 05:25:34 2021, MaxMem=   104857600 cpu:            3752.3 elap:              80.2
 (Enter /s/ls4/users/knvvv/bin/g16sse/l601.exe)
 Copying SCF densities to generalized density rwf, IOpCl= 1 IROHF=0.

 **********************************************************************

            Population analysis using the SCF density.

 **********************************************************************

 Orbital symmetries:
 Alpha Orbitals:
       Occupied  (SGG) (SGU) (SGG) (SGU) (PIU) (PIU) (SGG) (PIG)
                 (PIG)
       Virtual   (SGU) (PIU) (PIU) (SGG) (PIG) (PIG) (SGU) (SGG)
                 (SGU) (DLTG) (DLTG) (PIU) (PIU) (DLTU) (DLTU)
                 (SGG) (PIU) (PIU) (SGU) (PIG) (PIG) (PIG) (PIG)
                 (SGG) (SGU) (SGG) (DLTG) (DLTG) (PHIU) (PHIU)
                 (PIU) (PIU) (PHIG) (PHIG) (SGG) (SGU) (DLTG) (DLTG)
                 (DLTU) (DLTU) (PIG) (PIG) (DLTU) (DLTU) (PIU)
                 (PIU) (SGU) (SGU) (PIG) (PIG) (SGG) (PIU) (PIU)
                 (SGG) (PIG) (PIG) (SGU) (DLTG) (DLTG) (PHIU) (PHIU)
                 (PIU) (PIU) (SGG) (?A) (?A) (?B) (?B) (PHIG) (PHIG)
                 (DLTU) (DLTU) (SGU) (PIG) (PIG) (PHIU) (PHIU)
                 (DLTG) (DLTG) (PHIG) (PHIG) (DLTU) (DLTU) (SGG)
                 (SGU) (PIG) (PIG) (PIU) (PIU) (DLTG) (DLTG) (PIU)
                 (PIU) (DLTU) (DLTU) (SGG) (SGU) (PIG) (PIG) (SGG)
                 (SGU) (SGG) (SGU) (SGG) (SGU)
 Beta  Orbitals:
       Occupied  (SGG) (SGU) (SGG) (SGU) (SGG) (PIU) (PIU)
       Virtual   (PIG) (PIG) (SGU) (PIU) (PIU) (SGG) (PIG) (PIG)
                 (SGU) (SGG) (SGU) (DLTG) (DLTG) (PIU) (PIU) (SGG)
                 (DLTU) (DLTU) (SGU) (PIU) (PIU) (PIG) (PIG) (PIG)
                 (PIG) (SGU) (SGG) (SGG) (DLTG) (DLTG) (PHIU) (PHIU)
                 (PIU) (PIU) (PHIG) (PHIG) (SGG) (SGU) (DLTG) (DLTG)
                 (DLTU) (DLTU) (PIG) (PIG) (DLTU) (DLTU) (PIU)
                 (PIU) (SGU) (SGU) (PIG) (PIG) (SGG) (PIU) (PIU)
                 (SGG) (PIG) (PIG) (SGU) (DLTG) (DLTG) (PHIU) (PHIU)
                 (PIU) (PIU) (SGG) (?A) (?A) (?B) (?B) (PHIG) (PHIG)
                 (DLTU) (DLTU) (SGU) (PIG) (PIG) (PHIU) (PHIU)
                 (DLTG) (DLTG) (PHIG) (PHIG) (DLTU) (DLTU) (SGU)
                 (SGG) (PIG) (PIG) (PIU) (PIU) (DLTG) (DLTG) (PIU)
                 (PIU) (DLTU) (DLTU) (SGG) (SGU) (PIG) (PIG) (SGG)
                 (SGU) (SGG) (SGU) (SGG) (SGU)
 The electronic state is 3-SGG.
 Alpha  occ. eigenvalues --  -19.79415 -19.79378  -1.43896  -0.97178  -0.66850
 Alpha  occ. eigenvalues --   -0.66850  -0.64275  -0.40772  -0.40772
 Alpha virt. eigenvalues --    0.16418   0.25274   0.25274   0.31094   0.35469
 Alpha virt. eigenvalues --    0.35469   0.35492   0.40531   0.71411   0.87817
 Alpha virt. eigenvalues --    0.87817   1.05461   1.05461   1.23203   1.23204
 Alpha virt. eigenvalues --    1.24490   1.30015   1.30015   1.31591   1.37940
 Alpha virt. eigenvalues --    1.37940   1.73423   1.73423   1.83312   1.83398
 Alpha virt. eigenvalues --    2.62157   2.83534   2.83534   2.88398   2.88398
 Alpha virt. eigenvalues --    3.00131   3.00131   3.26920   3.26920   3.46198
 Alpha virt. eigenvalues --    3.62770   3.64282   3.64283   3.77450   3.77450
 Alpha virt. eigenvalues --    3.90230   3.90230   3.93914   3.93917   4.07743
 Alpha virt. eigenvalues --    4.07743   4.10234   4.36482   4.54591   4.54591
 Alpha virt. eigenvalues --    4.77459   4.86480   4.86480   4.90987   5.46507
 Alpha virt. eigenvalues --    5.46507   7.66887   8.06054   8.06055   8.29011
 Alpha virt. eigenvalues --    8.29011   8.45175   8.45175   8.57388   8.62496
 Alpha virt. eigenvalues --    8.62506   8.75115   8.75125   9.15776   9.15776
 Alpha virt. eigenvalues --   10.16602  10.16602  10.32987  10.44836  10.44836
 Alpha virt. eigenvalues --   10.61265  10.61265  10.74813  10.74813  10.76189
 Alpha virt. eigenvalues --   10.76189  11.13202  11.13206  11.23682  11.24894
 Alpha virt. eigenvalues --   11.28662  11.28662  11.47262  11.47262  11.60763
 Alpha virt. eigenvalues --   11.60765  11.72942  11.72942  11.81764  11.81766
 Alpha virt. eigenvalues --   11.90289  13.29824  13.60259  13.60259  13.66378
 Alpha virt. eigenvalues --   15.43014  47.02599  47.83231 249.96628 250.85945
  Beta  occ. eigenvalues --  -19.76893 -19.76824  -1.36611  -0.86397  -0.59120
  Beta  occ. eigenvalues --   -0.53237  -0.53237
  Beta virt. eigenvalues --   -0.06194  -0.06194   0.16823   0.26896   0.26896
  Beta virt. eigenvalues --    0.30659   0.35888   0.35888   0.39232   0.40576
  Beta virt. eigenvalues --    0.72093   0.88832   0.88832   1.07371   1.07371
  Beta virt. eigenvalues --    1.25004   1.25989   1.25989   1.31739   1.34956
  Beta virt. eigenvalues --    1.34956   1.41704   1.41704   1.74102   1.74102
  Beta virt. eigenvalues --    1.83923   1.83932   2.63185   2.83569   2.83569
  Beta virt. eigenvalues --    2.88806   2.88806   3.02857   3.02857   3.28078
  Beta virt. eigenvalues --    3.28078   3.48826   3.63404   3.68594   3.68595
  Beta virt. eigenvalues --    3.82013   3.82013   3.92327   3.92327   3.94114
  Beta virt. eigenvalues --    3.94115   4.08112   4.08112   4.09857   4.37992
  Beta virt. eigenvalues --    4.56035   4.56035   4.76284   4.91569   4.91569
  Beta virt. eigenvalues --    4.92698   5.50028   5.50028   7.68454   8.05984
  Beta virt. eigenvalues --    8.05984   8.30548   8.30548   8.41813   8.41813
  Beta virt. eigenvalues --    8.58146   8.66721   8.66722   8.79480   8.79481
  Beta virt. eigenvalues --    9.16855   9.16855  10.15255  10.15255  10.33101
  Beta virt. eigenvalues --   10.44868  10.44868  10.73431  10.73431  10.79488
  Beta virt. eigenvalues --   10.79488  10.88930  10.88930  11.18558  11.18559
  Beta virt. eigenvalues --   11.26794  11.27018  11.31555  11.31555  11.51954
  Beta virt. eigenvalues --   11.51954  11.72762  11.72763  11.78183  11.78183
  Beta virt. eigenvalues --   11.93362  11.93363  11.93553  13.46687  13.63225
  Beta virt. eigenvalues --   13.63225  13.79515  15.40419  47.06256  47.87359
  Beta virt. eigenvalues --  249.91814 250.81108
          Condensed to atoms (all electrons):
               1          2
     1  O    7.844697   0.155303
     2  O    0.155303   7.844697
          Atomic-Atomic Spin Densities.
               1          2
     1  O    1.360015  -0.360015
     2  O   -0.360015   1.360015
 Mulliken charges and spin densities:
               1          2
     1  O   -0.000000   1.000000
     2  O   -0.000000   1.000000
 Sum of Mulliken charges =  -0.00000   2.00000
 Mulliken charges and spin densities with hydrogens summed into heavy atoms:
               1          2
     1  O   -0.000000   1.000000
     2  O   -0.000000   1.000000
 Electronic spatial extent (au):  <R**2>=             43.9380
 Charge=             -0.0000 electrons
 Dipole moment (field-independent basis, Debye):
    X=             -0.0000    Y=             -0.0000    Z=              0.0000  Tot=              0.0000
 Quadrupole moment (field-independent basis, Debye-Ang):
   XX=            -10.0488   YY=            -10.0488   ZZ=            -10.4328
   XY=             -0.0000   XZ=              0.0000   YZ=              0.0000
 Traceless Quadrupole moment (field-independent basis, Debye-Ang):
   XX=              0.1280   YY=              0.1280   ZZ=             -0.2560
   XY=             -0.0000   XZ=              0.0000   YZ=              0.0000
 Octapole moment (field-independent basis, Debye-Ang**2):
  XXX=             -0.0000  YYY=             -0.0000  ZZZ=              0.0000  XYY=             -0.0000
  XXY=             -0.0000  XXZ=             -0.0000  XZZ=             -0.0000  YZZ=             -0.0000
  YYZ=              0.0000  XYZ=              0.0000
 Hexadecapole moment (field-independent basis, Debye-Ang**3):
 XXXX=             -7.2835 YYYY=             -7.2835 ZZZZ=            -29.1143 XXXY=             -0.0000
 XXXZ=              0.0000 YYYX=             -0.0000 YYYZ=              0.0000 ZZZX=              0.0000
 ZZZY=              0.0000 XXYY=             -2.4278 XXZZ=             -6.3075 YYZZ=             -6.3075
 XXYZ=              0.0000 YYXZ=              0.0000 ZZXY=             -0.0000
 N-N= 2.777407131524D+01 E-N=-4.110658201383D+02  KE= 1.498133371196D+02
                          Isotropic Fermi Contact Couplings
        Atom                 a.u.       MegaHertz       Gauss      10(-4) cm-1
     1  O(17)              0.16562     -50.19792     -17.91187     -16.74422
     2  O(17)              0.16562     -50.19792     -17.91187     -16.74422
 PrsmSu:  requested number of processors reduced to:  21 ShMem   1 Linda.
 --------------------------------------------------------
       Center         ----  Spin Dipole Couplings  ----
                      3XX-RR        3YY-RR        3ZZ-RR
 --------------------------------------------------------
     1   Atom        1.318278      1.318278     -2.636555
     2   Atom        1.318278      1.318278     -2.636555
 --------------------------------------------------------
                        XY            XZ            YZ
 --------------------------------------------------------
     1   Atom        0.000000     -0.000000      0.000000
     2   Atom        0.000000     -0.000000      0.000000
 --------------------------------------------------------


 ---------------------------------------------------------------------------------
              Anisotropic Spin Dipole Couplings in Principal Axis System
 ---------------------------------------------------------------------------------

       Atom             a.u.   MegaHertz   Gauss  10(-4) cm-1        Axes

              Baa    -2.6366   190.779    68.075    63.637  0.0000  0.0000  1.0000
     1 O(17)  Bbb     1.3183   -95.390   -34.037   -31.819  1.0000 -0.0097 -0.0000
              Bcc     1.3183   -95.390   -34.037   -31.819  0.0097  1.0000  0.0000
 
              Baa    -2.6366   190.779    68.075    63.637  0.0000  0.0000  1.0000
     2 O(17)  Bbb     1.3183   -95.390   -34.037   -31.819  1.0000  0.0000  0.0000
              Bcc     1.3183   -95.390   -34.037   -31.819  0.0000  1.0000  0.0000
 

 ---------------------------------------------------------------------------------

 PrsmSu:  requested number of processors reduced to:  21 ShMem   1 Linda.
 No NMR shielding tensors so no spin-rotation constants.
 Leave Link  601 at Sat Apr 17 05:25:37 2021, MaxMem=   104857600 cpu:             149.4 elap:               3.4
 (Enter /s/ls4/users/knvvv/bin/g16sse/l801.exe)
 DoSCS=F DFT=T ScalE2(SS,OS)=  1.000000  1.000000
 Range of M.O.s used for correlation:     1   114
 NBasis=   114 NAE=     9 NBE=     7 NFC=     0 NFV=     0
 NROrb=    114 NOA=     9 NOB=     7 NVA=   105 NVB=   107

 **** Warning!!: The largest alpha MO coefficient is  0.12558848D+02


 **** Warning!!: The largest beta MO coefficient is  0.12518578D+02

 Leave Link  801 at Sat Apr 17 05:25:37 2021, MaxMem=   104857600 cpu:               4.1 elap:               0.1
 (Enter /s/ls4/users/knvvv/bin/g16sse/l914.exe)
 UHF ground state
 Doing stability rather than CIS.
 Two-electron integrals replicated using symmetry.
 MDV=   104857600 DFT=T DoStab=T Mixed=T DoRPA=F DoScal=F NonHer=F
 Making orbital integer symmetry assigments:
 Orbital symmetries:
 Alpha Orbitals:
       Occupied  (SGG) (SGU) (SGG) (SGU) (PIU) (PIU) (SGG) (PIG)
                 (PIG)
       Virtual   (SGU) (PIU) (PIU) (SGG) (PIG) (PIG) (SGU) (SGG)
                 (SGU) (DLTG) (DLTG) (PIU) (PIU) (DLTU) (DLTU)
                 (SGG) (PIU) (PIU) (SGU) (PIG) (PIG) (PIG) (PIG)
                 (SGG) (SGU) (SGG) (DLTG) (DLTG) (PHIU) (PHIU)
                 (PIU) (PIU) (PHIG) (PHIG) (SGG) (SGU) (DLTG) (DLTG)
                 (DLTU) (DLTU) (PIG) (PIG) (DLTU) (DLTU) (PIU)
                 (PIU) (SGU) (SGU) (PIG) (PIG) (SGG) (PIU) (PIU)
                 (SGG) (PIG) (PIG) (SGU) (DLTG) (DLTG) (PHIU) (PHIU)
                 (PIU) (PIU) (SGG) (?A) (?A) (?B) (?B) (PHIG) (PHIG)
                 (DLTU) (DLTU) (SGU) (PIG) (PIG) (PHIU) (PHIU)
                 (DLTG) (DLTG) (PHIG) (PHIG) (DLTU) (DLTU) (SGG)
                 (SGU) (PIG) (PIG) (PIU) (PIU) (DLTG) (DLTG) (PIU)
                 (PIU) (DLTU) (DLTU) (SGG) (SGU) (PIG) (PIG) (SGG)
                 (SGU) (SGG) (SGU) (SGG) (SGU)
 Beta  Orbitals:
       Occupied  (SGG) (SGU) (SGG) (SGU) (SGG) (PIU) (PIU)
       Virtual   (PIG) (PIG) (SGU) (PIU) (PIU) (SGG) (PIG) (PIG)
                 (SGU) (SGG) (SGU) (DLTG) (DLTG) (PIU) (PIU) (SGG)
                 (DLTU) (DLTU) (SGU) (PIU) (PIU) (PIG) (PIG) (PIG)
                 (PIG) (SGU) (SGG) (SGG) (DLTG) (DLTG) (PHIU) (PHIU)
                 (PIU) (PIU) (PHIG) (PHIG) (SGG) (SGU) (DLTG) (DLTG)
                 (DLTU) (DLTU) (PIG) (PIG) (DLTU) (DLTU) (PIU)
                 (PIU) (SGU) (SGU) (PIG) (PIG) (SGG) (PIU) (PIU)
                 (SGG) (PIG) (PIG) (SGU) (DLTG) (DLTG) (PHIU) (PHIU)
                 (PIU) (PIU) (SGG) (?A) (?A) (?B) (?B) (PHIG) (PHIG)
                 (DLTU) (DLTU) (SGU) (PIG) (PIG) (PHIU) (PHIU)
                 (DLTG) (DLTG) (PHIG) (PHIG) (DLTU) (DLTU) (SGU)
                 (SGG) (PIG) (PIG) (PIU) (PIU) (DLTG) (DLTG) (PIU)
                 (PIU) (DLTU) (DLTU) (SGG) (SGU) (PIG) (PIG) (SGG)
                 (SGU) (SGG) (SGU) (SGG) (SGU)
    24 initial guesses have been made.
 Convergence on wavefunction:    0.001000000000000
 Davidson Disk Diagonalization:  ConvIn= 1.00D-03 SkipCon=T Conv= 1.00D-03.
 Max sub-space:  2000 roots to seek:    24 dimension of matrix:         1694
 Iteration     1 Dimension    24 NMult     0 NNew     24
 Estimated number of processors is:   20
 CISAX will form     1 AO SS matrices at one time.
 NMat=     1 NSing=     1 JSym2X= 2.
 FoFJK:  IHMeth= 1 ICntrl=       0 DoSepK=F KAlg= 0 I1Cent=           0 FoldK=F
 IRaf= 990000000 NMat=       1 IRICut=       1 DoRegI=T DoRafI=F ISym2E= 2 IDoP0=0 IntGTp=1.
 FoFCou: FMM=F IPFlag=           0 FMFlag=      100000 FMFlg1=           0
         NFxFlg=           0 DoJE=F BraDBF=F KetDBF=F FulRan=T
         wScrn=  0.000000 ICntrl=         0 IOpCl=  1 I1Cent=           0 NGrid=           0
         NMat0=    1 NMatS0=      1 NMatT0=    0 NMatD0=    1 NMtDS0=    0 NMtDT0=    0
 Integrals replicated using symmetry in FoFCou.
 CoulSu:  requested number of processors reduced to:  18 ShMem   1 Linda.
 NMat=     1 NSing=     1 JSym2X= 2.
 CoulSu:  requested number of processors reduced to:  18 ShMem   1 Linda.
 NMat=     1 NSing=     1 JSym2X= 2.
 CoulSu:  requested number of processors reduced to:  18 ShMem   1 Linda.
 NMat=     1 NSing=     1 JSym2X= 2.
 CoulSu:  requested number of processors reduced to:  18 ShMem   1 Linda.
 NMat=     1 NSing=     1 JSym2X= 2.
 CoulSu:  requested number of processors reduced to:  18 ShMem   1 Linda.
 NMat=     1 NSing=     1 JSym2X= 2.
 CoulSu:  requested number of processors reduced to:  18 ShMem   1 Linda.
 NMat=     1 NSing=     1 JSym2X= 2.
 CoulSu:  requested number of processors reduced to:  18 ShMem   1 Linda.
 NMat=     1 NSing=     1 JSym2X= 2.
 CoulSu:  requested number of processors reduced to:  18 ShMem   1 Linda.
 NMat=     1 NSing=     1 JSym2X= 2.
 CoulSu:  requested number of processors reduced to:  18 ShMem   1 Linda.
 NMat=     1 NSing=     1 JSym2X= 2.
 CoulSu:  requested number of processors reduced to:  18 ShMem   1 Linda.
 NMat=     1 NSing=     1 JSym2X= 2.
 CoulSu:  requested number of processors reduced to:  18 ShMem   1 Linda.
 NMat=     1 NSing=     1 JSym2X= 2.
 CoulSu:  requested number of processors reduced to:  18 ShMem   1 Linda.
 NMat=     1 NSing=     1 JSym2X= 2.
 CoulSu:  requested number of processors reduced to:  18 ShMem   1 Linda.
 NMat=     1 NSing=     1 JSym2X= 2.
 CoulSu:  requested number of processors reduced to:  18 ShMem   1 Linda.
 NMat=     1 NSing=     1 JSym2X= 2.
 CoulSu:  requested number of processors reduced to:  18 ShMem   1 Linda.
 NMat=     1 NSing=     1 JSym2X= 2.
 CoulSu:  requested number of processors reduced to:  18 ShMem   1 Linda.
 NMat=     1 NSing=     1 JSym2X= 2.
 CoulSu:  requested number of processors reduced to:  18 ShMem   1 Linda.
 NMat=     1 NSing=     1 JSym2X= 2.
 CoulSu:  requested number of processors reduced to:  18 ShMem   1 Linda.
 NMat=     1 NSing=     1 JSym2X= 2.
 CoulSu:  requested number of processors reduced to:  18 ShMem   1 Linda.
 NMat=     1 NSing=     1 JSym2X= 2.
 CoulSu:  requested number of processors reduced to:  18 ShMem   1 Linda.
 NMat=     1 NSing=     1 JSym2X= 2.
 CoulSu:  requested number of processors reduced to:  18 ShMem   1 Linda.
 NMat=     1 NSing=     1 JSym2X= 2.
 CoulSu:  requested number of processors reduced to:  18 ShMem   1 Linda.
 NMat=     1 NSing=     1 JSym2X= 2.
 CoulSu:  requested number of processors reduced to:  18 ShMem   1 Linda.
 NMat=     1 NSing=     1 JSym2X= 2.
 CoulSu:  requested number of processors reduced to:  18 ShMem   1 Linda.
 Excitation Energies [eV] at current iteration:
 Root      1 :     5.364327914629994
 Root      2 :     5.364458460567462
 Root      3 :     7.509398072366269
 Root      4 :     8.084233405643726
 Root      5 :     8.084233405643809
 Root      6 :    10.579624317566560
 Root      7 :    10.579624317567070
 Root      8 :    12.102530164179720
 Root      9 :    13.585128542801370
 Root     10 :    13.585232841839370
 Root     11 :    13.916553307988760
 Root     12 :    14.999950193101550
 Root     13 :    14.999950193102220
 Root     14 :    15.370795029994030
 Root     15 :    15.370795029994530
 Root     16 :    15.830641802651030
 Root     17 :    15.830641802651740
 Root     18 :    16.508225403741700
 Root     19 :    16.603401352257030
 Root     20 :    16.604548085310940
 Root     21 :    17.058443825166120
 Root     22 :    17.674619477552130
 Root     23 :    20.112290968236890
 Root     24 :    23.912455626120730
 Iteration     2 Dimension    48 NMult    24 NNew     24
 Estimated number of processors is:   20
 CISAX will form     1 AO SS matrices at one time.
 NMat=     1 NSing=     1 JSym2X= 2.
 CoulSu:  requested number of processors reduced to:  18 ShMem   1 Linda.
 NMat=     1 NSing=     1 JSym2X= 2.
 CoulSu:  requested number of processors reduced to:  18 ShMem   1 Linda.
 NMat=     1 NSing=     1 JSym2X= 2.
 CoulSu:  requested number of processors reduced to:  18 ShMem   1 Linda.
 NMat=     1 NSing=     1 JSym2X= 2.
 CoulSu:  requested number of processors reduced to:  18 ShMem   1 Linda.
 NMat=     1 NSing=     1 JSym2X= 2.
 CoulSu:  requested number of processors reduced to:  18 ShMem   1 Linda.
 NMat=     1 NSing=     1 JSym2X= 2.
 CoulSu:  requested number of processors reduced to:  18 ShMem   1 Linda.
 NMat=     1 NSing=     1 JSym2X= 2.
 CoulSu:  requested number of processors reduced to:  18 ShMem   1 Linda.
 NMat=     1 NSing=     1 JSym2X= 2.
 CoulSu:  requested number of processors reduced to:  18 ShMem   1 Linda.
 NMat=     1 NSing=     1 JSym2X= 2.
 CoulSu:  requested number of processors reduced to:  18 ShMem   1 Linda.
 NMat=     1 NSing=     1 JSym2X= 2.
 CoulSu:  requested number of processors reduced to:  18 ShMem   1 Linda.
 NMat=     1 NSing=     1 JSym2X= 2.
 CoulSu:  requested number of processors reduced to:  18 ShMem   1 Linda.
 NMat=     1 NSing=     1 JSym2X= 2.
 CoulSu:  requested number of processors reduced to:  18 ShMem   1 Linda.
 NMat=     1 NSing=     1 JSym2X= 2.
 CoulSu:  requested number of processors reduced to:  18 ShMem   1 Linda.
 NMat=     1 NSing=     1 JSym2X= 2.
 CoulSu:  requested number of processors reduced to:  18 ShMem   1 Linda.
 NMat=     1 NSing=     1 JSym2X= 2.
 CoulSu:  requested number of processors reduced to:  18 ShMem   1 Linda.
 NMat=     1 NSing=     1 JSym2X= 2.
 CoulSu:  requested number of processors reduced to:  18 ShMem   1 Linda.
 NMat=     1 NSing=     1 JSym2X= 2.
 CoulSu:  requested number of processors reduced to:  18 ShMem   1 Linda.
 NMat=     1 NSing=     1 JSym2X= 2.
 CoulSu:  requested number of processors reduced to:  18 ShMem   1 Linda.
 NMat=     1 NSing=     1 JSym2X= 2.
 CoulSu:  requested number of processors reduced to:  18 ShMem   1 Linda.
 NMat=     1 NSing=     1 JSym2X= 2.
 CoulSu:  requested number of processors reduced to:  18 ShMem   1 Linda.
 NMat=     1 NSing=     1 JSym2X= 2.
 CoulSu:  requested number of processors reduced to:  18 ShMem   1 Linda.
 NMat=     1 NSing=     1 JSym2X= 2.
 CoulSu:  requested number of processors reduced to:  18 ShMem   1 Linda.
 NMat=     1 NSing=     1 JSym2X= 2.
 CoulSu:  requested number of processors reduced to:  18 ShMem   1 Linda.
 NMat=     1 NSing=     1 JSym2X= 2.
 CoulSu:  requested number of processors reduced to:  18 ShMem   1 Linda.
 Root      1 not converged, maximum delta is    0.053806676482413
 Excitation Energies [eV] at current iteration:
 Root      1 :     5.037512603189682   Change is   -0.326815311440313
 Root      2 :     5.037661615790701   Change is   -0.326796844776762
 Root      3 :     7.409786047282341   Change is   -0.674447358361384
 Root      4 :     7.409786047282418   Change is   -0.674447358361391
 Root      5 :     7.458315963871699   Change is   -0.051082108494570
 Root      6 :     8.491686491504694   Change is   -3.610843672675026
 Root      7 :    10.102439396864140   Change is   -0.477184920702417
 Root      8 :    10.102439396864600   Change is   -0.477184920702468
 Root      9 :    13.323183994497790   Change is   -0.261944548303576
 Root     10 :    13.323300655659280   Change is   -0.261932186180092
 Root     11 :    13.871604374819740   Change is   -0.044948933169020
 Root     12 :    14.350456793828040   Change is   -2.157768609913652
 Root     13 :    14.644562498834170   Change is   -0.726232531159862
 Root     14 :    14.644562498834550   Change is   -0.726232531159989
 Root     15 :    14.645574566065310   Change is   -0.354375627036233
 Root     16 :    14.645574566065980   Change is   -0.354375627036246
 Root     17 :    15.614779035419610   Change is   -0.215862767231420
 Root     18 :    15.614779035420330   Change is   -0.215862767231405
 Root     19 :    16.267224992663290   Change is   -0.336176359593735
 Root     20 :    16.267382006539460   Change is   -0.337166078771477
 Root     21 :    16.905759475273350   Change is   -7.006696150847378
 Root     22 :    16.977169385202560   Change is   -0.081274439963557
 Root     23 :    17.338604768503910   Change is   -0.336014709048222
 Root     24 :    17.908839697801750   Change is   -2.203451270435146
 Iteration     3 Dimension    51 NMult    48 NNew      3
 Estimated number of processors is:   20
 CISAX will form     1 AO SS matrices at one time.
 NMat=     1 NSing=     1 JSym2X= 2.
 CoulSu:  requested number of processors reduced to:  18 ShMem   1 Linda.
 NMat=     1 NSing=     1 JSym2X= 2.
 CoulSu:  requested number of processors reduced to:  18 ShMem   1 Linda.
 NMat=     1 NSing=     1 JSym2X= 2.
 CoulSu:  requested number of processors reduced to:  18 ShMem   1 Linda.
 Root      1 not converged, maximum delta is    0.007121189778656
 Excitation Energies [eV] at current iteration:
 Root      1 :     5.033003649487248   Change is   -0.004508953702434
 Root      2 :     5.033153028659933   Change is   -0.004508587130768
 Root      3 :     7.390618061599585   Change is   -0.019167985682756
 Iteration     4 Dimension    54 NMult    51 NNew      3
 Estimated number of processors is:   20
 CISAX will form     1 AO SS matrices at one time.
 NMat=     1 NSing=     1 JSym2X= 2.
 CoulSu:  requested number of processors reduced to:  18 ShMem   1 Linda.
 NMat=     1 NSing=     1 JSym2X= 2.
 CoulSu:  requested number of processors reduced to:  18 ShMem   1 Linda.
 NMat=     1 NSing=     1 JSym2X= 2.
 CoulSu:  requested number of processors reduced to:  18 ShMem   1 Linda.
 Root      1 has converged.
 Excitation Energies [eV] at current iteration:
 Root      1 :     5.032996745664586   Change is   -0.000006903822662
 Root      2 :     5.033146125899956   Change is   -0.000006902759977
 Root      3 :     7.390051322018287   Change is   -0.000566739581298
 Convergence achieved on expansion vectors.
 ***********************************************************************
 Stability analysis using <AA,BB:AA,BB> singles matrix:
 ***********************************************************************
 1PDM for each excited state written to RWF  633
 Ground to excited state transition densities written to RWF  633

 Eigenvectors of the stability matrix:
 
 Excited state symmetry could not be determined.
 Eigenvector   1:  3.007-?Sym  Eigenvalue= 0.1849592  <S**2>=2.010
      6B ->  8B        0.42298
      6B ->  9B        0.56057
      7B ->  8B        0.56057
      7B ->  9B       -0.42298
 The wavefunction is stable under the perturbations considered.
 Leave Link  914 at Sat Apr 17 05:27:20 2021, MaxMem=   104857600 cpu:            3855.5 elap:             102.6
 (Enter /s/ls4/users/knvvv/bin/g16sse/l508.exe)
 The wavefunction is already stable.
 Leave Link  508 at Sat Apr 17 05:27:20 2021, MaxMem=   104857600 cpu:               2.2 elap:               0.1
 (Enter /s/ls4/users/knvvv/bin/g16sse/l601.exe)
 Copying SCF densities to generalized density rwf, IOpCl= 1 IROHF=0.

 **********************************************************************

            Population analysis using the SCF density.

 **********************************************************************

 Orbital symmetries:
 Alpha Orbitals:
       Occupied  (SGG) (SGU) (SGG) (SGU) (PIU) (PIU) (SGG) (PIG)
                 (PIG)
       Virtual   (SGU) (PIU) (PIU) (SGG) (PIG) (PIG) (SGU) (SGG)
                 (SGU) (DLTG) (DLTG) (PIU) (PIU) (DLTU) (DLTU)
                 (SGG) (PIU) (PIU) (SGU) (PIG) (PIG) (PIG) (PIG)
                 (SGG) (SGU) (SGG) (DLTG) (DLTG) (PHIU) (PHIU)
                 (PIU) (PIU) (PHIG) (PHIG) (SGG) (SGU) (DLTG) (DLTG)
                 (DLTU) (DLTU) (PIG) (PIG) (DLTU) (DLTU) (PIU)
                 (PIU) (SGU) (SGU) (PIG) (PIG) (SGG) (PIU) (PIU)
                 (SGG) (PIG) (PIG) (SGU) (DLTG) (DLTG) (PHIU) (PHIU)
                 (PIU) (PIU) (SGG) (?A) (?A) (?B) (?B) (PHIG) (PHIG)
                 (DLTU) (DLTU) (SGU) (PIG) (PIG) (PHIU) (PHIU)
                 (DLTG) (DLTG) (PHIG) (PHIG) (DLTU) (DLTU) (SGG)
                 (SGU) (PIG) (PIG) (PIU) (PIU) (DLTG) (DLTG) (PIU)
                 (PIU) (DLTU) (DLTU) (SGG) (SGU) (PIG) (PIG) (SGG)
                 (SGU) (SGG) (SGU) (SGG) (SGU)
 Beta  Orbitals:
       Occupied  (SGG) (SGU) (SGG) (SGU) (SGG) (PIU) (PIU)
       Virtual   (PIG) (PIG) (SGU) (PIU) (PIU) (SGG) (PIG) (PIG)
                 (SGU) (SGG) (SGU) (DLTG) (DLTG) (PIU) (PIU) (SGG)
                 (DLTU) (DLTU) (SGU) (PIU) (PIU) (PIG) (PIG) (PIG)
                 (PIG) (SGU) (SGG) (SGG) (DLTG) (DLTG) (PHIU) (PHIU)
                 (PIU) (PIU) (PHIG) (PHIG) (SGG) (SGU) (DLTG) (DLTG)
                 (DLTU) (DLTU) (PIG) (PIG) (DLTU) (DLTU) (PIU)
                 (PIU) (SGU) (SGU) (PIG) (PIG) (SGG) (PIU) (PIU)
                 (SGG) (PIG) (PIG) (SGU) (DLTG) (DLTG) (PHIU) (PHIU)
                 (PIU) (PIU) (SGG) (?A) (?A) (?B) (?B) (PHIG) (PHIG)
                 (DLTU) (DLTU) (SGU) (PIG) (PIG) (PHIU) (PHIU)
                 (DLTG) (DLTG) (PHIG) (PHIG) (DLTU) (DLTU) (SGU)
                 (SGG) (PIG) (PIG) (PIU) (PIU) (DLTG) (DLTG) (PIU)
                 (PIU) (DLTU) (DLTU) (SGG) (SGU) (PIG) (PIG) (SGG)
                 (SGU) (SGG) (SGU) (SGG) (SGU)
 The electronic state is 3-SGG.
 Alpha  occ. eigenvalues --  -19.79415 -19.79378  -1.43896  -0.97178  -0.66850
 Alpha  occ. eigenvalues --   -0.66850  -0.64275  -0.40772  -0.40772
 Alpha virt. eigenvalues --    0.16418   0.25274   0.25274   0.31094   0.35469
 Alpha virt. eigenvalues --    0.35469   0.35492   0.40531   0.71411   0.87817
 Alpha virt. eigenvalues --    0.87817   1.05461   1.05461   1.23203   1.23204
 Alpha virt. eigenvalues --    1.24490   1.30015   1.30015   1.31591   1.37940
 Alpha virt. eigenvalues --    1.37940   1.73423   1.73423   1.83312   1.83398
 Alpha virt. eigenvalues --    2.62157   2.83534   2.83534   2.88398   2.88398
 Alpha virt. eigenvalues --    3.00131   3.00131   3.26920   3.26920   3.46198
 Alpha virt. eigenvalues --    3.62770   3.64282   3.64283   3.77450   3.77450
 Alpha virt. eigenvalues --    3.90230   3.90230   3.93914   3.93917   4.07743
 Alpha virt. eigenvalues --    4.07743   4.10234   4.36482   4.54591   4.54591
 Alpha virt. eigenvalues --    4.77459   4.86480   4.86480   4.90987   5.46507
 Alpha virt. eigenvalues --    5.46507   7.66887   8.06054   8.06055   8.29011
 Alpha virt. eigenvalues --    8.29011   8.45175   8.45175   8.57388   8.62496
 Alpha virt. eigenvalues --    8.62506   8.75115   8.75125   9.15776   9.15776
 Alpha virt. eigenvalues --   10.16602  10.16602  10.32987  10.44836  10.44836
 Alpha virt. eigenvalues --   10.61265  10.61265  10.74813  10.74813  10.76189
 Alpha virt. eigenvalues --   10.76189  11.13202  11.13206  11.23682  11.24894
 Alpha virt. eigenvalues --   11.28662  11.28662  11.47262  11.47262  11.60763
 Alpha virt. eigenvalues --   11.60765  11.72942  11.72942  11.81764  11.81766
 Alpha virt. eigenvalues --   11.90289  13.29824  13.60259  13.60259  13.66378
 Alpha virt. eigenvalues --   15.43014  47.02599  47.83231 249.96628 250.85945
  Beta  occ. eigenvalues --  -19.76893 -19.76824  -1.36611  -0.86397  -0.59120
  Beta  occ. eigenvalues --   -0.53237  -0.53237
  Beta virt. eigenvalues --   -0.06194  -0.06194   0.16823   0.26896   0.26896
  Beta virt. eigenvalues --    0.30659   0.35888   0.35888   0.39232   0.40576
  Beta virt. eigenvalues --    0.72093   0.88832   0.88832   1.07371   1.07371
  Beta virt. eigenvalues --    1.25004   1.25989   1.25989   1.31739   1.34956
  Beta virt. eigenvalues --    1.34956   1.41704   1.41704   1.74102   1.74102
  Beta virt. eigenvalues --    1.83923   1.83932   2.63185   2.83569   2.83569
  Beta virt. eigenvalues --    2.88806   2.88806   3.02857   3.02857   3.28078
  Beta virt. eigenvalues --    3.28078   3.48826   3.63404   3.68594   3.68595
  Beta virt. eigenvalues --    3.82013   3.82013   3.92327   3.92327   3.94114
  Beta virt. eigenvalues --    3.94115   4.08112   4.08112   4.09857   4.37992
  Beta virt. eigenvalues --    4.56035   4.56035   4.76284   4.91569   4.91569
  Beta virt. eigenvalues --    4.92698   5.50028   5.50028   7.68454   8.05984
  Beta virt. eigenvalues --    8.05984   8.30548   8.30548   8.41813   8.41813
  Beta virt. eigenvalues --    8.58146   8.66721   8.66722   8.79480   8.79481
  Beta virt. eigenvalues --    9.16855   9.16855  10.15255  10.15255  10.33101
  Beta virt. eigenvalues --   10.44868  10.44868  10.73431  10.73431  10.79488
  Beta virt. eigenvalues --   10.79488  10.88930  10.88930  11.18558  11.18559
  Beta virt. eigenvalues --   11.26794  11.27018  11.31555  11.31555  11.51954
  Beta virt. eigenvalues --   11.51954  11.72762  11.72763  11.78183  11.78183
  Beta virt. eigenvalues --   11.93362  11.93363  11.93553  13.46687  13.63225
  Beta virt. eigenvalues --   13.63225  13.79515  15.40419  47.06256  47.87359
  Beta virt. eigenvalues --  249.91814 250.81108
          Condensed to atoms (all electrons):
               1          2
     1  O    7.844697   0.155303
     2  O    0.155303   7.844697
          Atomic-Atomic Spin Densities.
               1          2
     1  O    1.360015  -0.360015
     2  O   -0.360015   1.360015
 Mulliken charges and spin densities:
               1          2
     1  O   -0.000000   1.000000
     2  O   -0.000000   1.000000
 Sum of Mulliken charges =  -0.00000   2.00000
 Mulliken charges and spin densities with hydrogens summed into heavy atoms:
               1          2
     1  O   -0.000000   1.000000
     2  O   -0.000000   1.000000
 Electronic spatial extent (au):  <R**2>=             43.9380
 Charge=             -0.0000 electrons
 Dipole moment (field-independent basis, Debye):
    X=             -0.0000    Y=             -0.0000    Z=              0.0000  Tot=              0.0000
 Quadrupole moment (field-independent basis, Debye-Ang):
   XX=            -10.0488   YY=            -10.0488   ZZ=            -10.4328
   XY=             -0.0000   XZ=              0.0000   YZ=              0.0000
 Traceless Quadrupole moment (field-independent basis, Debye-Ang):
   XX=              0.1280   YY=              0.1280   ZZ=             -0.2560
   XY=             -0.0000   XZ=              0.0000   YZ=              0.0000
 Octapole moment (field-independent basis, Debye-Ang**2):
  XXX=             -0.0000  YYY=             -0.0000  ZZZ=              0.0000  XYY=             -0.0000
  XXY=             -0.0000  XXZ=             -0.0000  XZZ=             -0.0000  YZZ=             -0.0000
  YYZ=              0.0000  XYZ=              0.0000
 Hexadecapole moment (field-independent basis, Debye-Ang**3):
 XXXX=             -7.2835 YYYY=             -7.2835 ZZZZ=            -29.1143 XXXY=             -0.0000
 XXXZ=              0.0000 YYYX=             -0.0000 YYYZ=              0.0000 ZZZX=              0.0000
 ZZZY=              0.0000 XXYY=             -2.4278 XXZZ=             -6.3075 YYZZ=             -6.3075
 XXYZ=              0.0000 YYXZ=              0.0000 ZZXY=             -0.0000
 N-N= 2.777407131524D+01 E-N=-4.110658201383D+02  KE= 1.498133371196D+02
                          Isotropic Fermi Contact Couplings
        Atom                 a.u.       MegaHertz       Gauss      10(-4) cm-1
     1  O(17)              0.16562     -50.19792     -17.91187     -16.74422
     2  O(17)              0.16562     -50.19792     -17.91187     -16.74422
 PrsmSu:  requested number of processors reduced to:  21 ShMem   1 Linda.
 --------------------------------------------------------
       Center         ----  Spin Dipole Couplings  ----
                      3XX-RR        3YY-RR        3ZZ-RR
 --------------------------------------------------------
     1   Atom        1.318278      1.318278     -2.636555
     2   Atom        1.318278      1.318278     -2.636555
 --------------------------------------------------------
                        XY            XZ            YZ
 --------------------------------------------------------
     1   Atom        0.000000     -0.000000      0.000000
     2   Atom        0.000000     -0.000000      0.000000
 --------------------------------------------------------


 ---------------------------------------------------------------------------------
              Anisotropic Spin Dipole Couplings in Principal Axis System
 ---------------------------------------------------------------------------------

       Atom             a.u.   MegaHertz   Gauss  10(-4) cm-1        Axes

              Baa    -2.6366   190.779    68.075    63.637  0.0000  0.0000  1.0000
     1 O(17)  Bbb     1.3183   -95.390   -34.037   -31.819  1.0000 -0.0097 -0.0000
              Bcc     1.3183   -95.390   -34.037   -31.819  0.0097  1.0000  0.0000
 
              Baa    -2.6366   190.779    68.075    63.637  0.0000  0.0000  1.0000
     2 O(17)  Bbb     1.3183   -95.390   -34.037   -31.819  1.0000  0.0000  0.0000
              Bcc     1.3183   -95.390   -34.037   -31.819  0.0000  1.0000  0.0000
 

 ---------------------------------------------------------------------------------

 PrsmSu:  requested number of processors reduced to:  21 ShMem   1 Linda.
 No NMR shielding tensors so no spin-rotation constants.
 Leave Link  601 at Sat Apr 17 05:27:23 2021, MaxMem=   104857600 cpu:             150.1 elap:               3.4
 (Enter /s/ls4/users/knvvv/bin/g16sse/l9999.exe)

 Test job not archived.
 1\1\GINC-N155\Stability\UM062X\def2QZVP\O2(3)\KNVVV\17-Apr-2021\0\\#P 
 M062X/Def2QZVP Integral=UltraFineGrid SCF=NoSymm Stable=(RExt, Opt) IO
 p(1/33=1)\\Database calculations.\\0,3\O,0,0.,0.,-0.6096935\O,0,0.,0.,
 0.6096935\\Version=ES64L-G16RevA.03\State=3-SGG\HF=-150.3355334\S2=2.0
 1354\S2-1=0.\S2A=2.000088\RMSD=2.958e-09\Dipole=0.,0.,0.\Quadrupole=0.
 0951587,0.0951587,-0.1903174,0.,0.,0.\PG=D*H [C*(O1.O1)]\\@


 ERWIN WITH HIS PSI CAN DO
 CALCULATIONS QUITE A FEW.
 BUT ONE THING HAS NOT BEEN SEEN
 JUST WHAT DOES PSI REALLY MEAN.
 -- WALTER HUCKEL, TRANS. BY FELIX BLOCH
 Job cpu time:       0 days  2 hours 15 minutes 32.6 seconds.
 Elapsed time:       0 days  0 hours  3 minutes 14.8 seconds.
 File lengths (MBytes):  RWF=     69 Int=      0 D2E=      0 Chk=      3 Scr=      1
 Normal termination of Gaussian 16 at Sat Apr 17 05:27:23 2021.
