 Entering Gaussian System, Link 0=/s/ls4/users/knvvv/bin/g16sse/g16
 Input=data/database/M062X--def2-QZVPPD--199_hoo_W4-11.gjf
 Output=data/database/M062X--def2-QZVPPD--199_hoo_W4-11.log
 Initial command:
 /s/ls4/users/knvvv/bin/g16sse/l1.exe "/s/ls4/users/knvvv/bin/scratch/Gau-32086.inp" -scrdir="/s/ls4/users/knvvv/bin/scratch/"
 Entering Link 1 = /s/ls4/users/knvvv/bin/g16sse/l1.exe PID=     32087.
  
 Copyright (c) 1988,1990,1992,1993,1995,1998,2003,2009,2016,
            Gaussian, Inc.  All Rights Reserved.
  
 This is part of the Gaussian(R) 16 program.  It is based on
 the Gaussian(R) 09 system (copyright 2009, Gaussian, Inc.),
 the Gaussian(R) 03 system (copyright 2003, Gaussian, Inc.),
 the Gaussian(R) 98 system (copyright 1998, Gaussian, Inc.),
 the Gaussian(R) 94 system (copyright 1995, Gaussian, Inc.),
 the Gaussian 92(TM) system (copyright 1992, Gaussian, Inc.),
 the Gaussian 90(TM) system (copyright 1990, Gaussian, Inc.),
 the Gaussian 88(TM) system (copyright 1988, Gaussian, Inc.),
 the Gaussian 86(TM) system (copyright 1986, Carnegie Mellon
 University), and the Gaussian 82(TM) system (copyright 1983,
 Carnegie Mellon University). Gaussian is a federally registered
 trademark of Gaussian, Inc.
  
 This software contains proprietary and confidential information,
 including trade secrets, belonging to Gaussian, Inc.
  
 This software is provided under written license and may be
 used, copied, transmitted, or stored only in accord with that
 written license.
  
 The following legend is applicable only to US Government
 contracts under FAR:
  
                    RESTRICTED RIGHTS LEGEND
  
 Use, reproduction and disclosure by the US Government is
 subject to restrictions as set forth in subparagraphs (a)
 and (c) of the Commercial Computer Software - Restricted
 Rights clause in FAR 52.227-19.
  
 Gaussian, Inc.
 340 Quinnipiac St., Bldg. 40, Wallingford CT 06492
  
  
 ---------------------------------------------------------------
 Warning -- This program may not be used in any manner that
 competes with the business of Gaussian, Inc. or will provide
 assistance to any competitor of Gaussian, Inc.  The licensee
 of this program is prohibited from giving any competitor of
 Gaussian, Inc. access to this program.  By using this program,
 the user acknowledges that Gaussian, Inc. is engaged in the
 business of creating and licensing software in the field of
 computational chemistry and represents and warrants to the
 licensee that it is not a competitor of Gaussian, Inc. and that
 it will not use this program in any manner prohibited above.
 ---------------------------------------------------------------
  

 Cite this work as:
 Gaussian 16, Revision A.03,
 M. J. Frisch, G. W. Trucks, H. B. Schlegel, G. E. Scuseria, 
 M. A. Robb, J. R. Cheeseman, G. Scalmani, V. Barone, 
 G. A. Petersson, H. Nakatsuji, X. Li, M. Caricato, A. V. Marenich, 
 J. Bloino, B. G. Janesko, R. Gomperts, B. Mennucci, H. P. Hratchian, 
 J. V. Ortiz, A. F. Izmaylov, J. L. Sonnenberg, D. Williams-Young, 
 F. Ding, F. Lipparini, F. Egidi, J. Goings, B. Peng, A. Petrone, 
 T. Henderson, D. Ranasinghe, V. G. Zakrzewski, J. Gao, N. Rega, 
 G. Zheng, W. Liang, M. Hada, M. Ehara, K. Toyota, R. Fukuda, 
 J. Hasegawa, M. Ishida, T. Nakajima, Y. Honda, O. Kitao, H. Nakai, 
 T. Vreven, K. Throssell, J. A. Montgomery, Jr., J. E. Peralta, 
 F. Ogliaro, M. J. Bearpark, J. J. Heyd, E. N. Brothers, K. N. Kudin, 
 V. N. Staroverov, T. A. Keith, R. Kobayashi, J. Normand, 
 K. Raghavachari, A. P. Rendell, J. C. Burant, S. S. Iyengar, 
 J. Tomasi, M. Cossi, J. M. Millam, M. Klene, C. Adamo, R. Cammi, 
 J. W. Ochterski, R. L. Martin, K. Morokuma, O. Farkas, 
 J. B. Foresman, and D. J. Fox, Gaussian, Inc., Wallingford CT, 2016.
 
 ******************************************
 Gaussian 16:  ES64L-G16RevA.03 25-Dec-2016
                17-Apr-2021 
 ******************************************
 %RWF=temp10_43085,70GB
 %nprocshared=48
 Will use up to   48 processors via shared memory.
 Default route: MaxDisk=80GB
 ----------------------------------------------------------------------
 #P M062X/GEN Integral=UltraFineGrid SCF=NoSymm Stable=(RExt, Opt) IOp(
 1/33=1)
 ----------------------------------------------------------------------
 1/33=1,38=1,172=1/1;
 2/12=2,17=6,18=5,40=1/2;
 3/5=7,11=2,25=1,30=1,74=-55,75=-5/1,2,3;
 4/9=2/1;
 5/5=2,38=5/2;
 6/7=2,8=2,9=2,10=2,28=1/1;
 8/6=1,10=90,11=11/1;
 9/8=-3,42=1,46=1/14;
 5/5=2,8=3,17=40,38=5/8(-2);
 6/7=2,8=2,9=2,10=2,28=1/1;
 99/5=1,9=1/99;
 Leave Link    1 at Sat Apr 17 13:56:15 2021, MaxMem=           0 cpu:              10.9 elap:               0.2
 (Enter /s/ls4/users/knvvv/bin/g16sse/l101.exe)
 ONIOM data not found on unit 2.
 ----------------------
 Database calculations.
 ----------------------
 TstMul:  ICh=     0
 TstMul:  Mul=     2
 TstMul:  ICh=     0
 TstMul:  Mul=     2
 Symbolic Z-matrix:
 Charge =  0 Multiplicity = 2
 O                     0.        0.        0. 
 O                     0.        0.        1.33028 
 H                     0.94059   0.        1.56877 
 
 RdStrC is calling ZToCFu for IStruc=1 NZ=     3.
 PrtBox:  NBox=     1 Levels=  1 BoxLen=    8.00 SMaxX=        2.96
          Shift=            0.000000            0.000000            0.000000
 Box      1 Number                   0 centers from      1 to      3:
 After GenITR:
 ITRead=  0  0  0
 MicOpt= -1 -1 -1
 ITRead=  0  0  0
 MicOpt= -1 -1 -1
 NAtoms=      3 NQM=        3 NQMF=       0 NMMI=      0 NMMIF=      0
                NMic=       0 NMicF=      0.
                    Isotopes and Nuclear Properties:
 (Nuclear quadrupole moments (NQMom) in fm**2, nuclear magnetic moments (NMagM)
  in nuclear magnetons)

  Atom         1           2           3
 IAtWgt=          16          16           1
 AtmWgt=  15.9949146  15.9949146   1.0078250
 NucSpn=           0           0           1
 AtZEff=  -0.0000000  -0.0000000  -0.0000000
 NQMom=    0.0000000   0.0000000   0.0000000
 NMagM=    0.0000000   0.0000000   2.7928460
 AtZNuc=   8.0000000   8.0000000   1.0000000
 No MM parameters found.
 Leave Link  101 at Sat Apr 17 13:56:15 2021, MaxMem=   104857600 cpu:               6.6 elap:               0.2
 (Enter /s/ls4/users/knvvv/bin/g16sse/l202.exe)
                          Input orientation:                          
 ---------------------------------------------------------------------
 Center     Atomic      Atomic             Coordinates (Angstroms)
 Number     Number       Type             X           Y           Z
 ---------------------------------------------------------------------
      1          8           0        0.000000    0.000000    0.000000
      2          8           0        0.000000    0.000000    1.330276
      3          1           0        0.940588    0.000000    1.568767
 ---------------------------------------------------------------------
                    Distance matrix (angstroms):
                    1          2          3
     1  O    0.000000
     2  O    1.330276   0.000000
     3  H    1.829136   0.970352   0.000000
 Stoichiometry    HO2(2)
 Framework group  CS[SG(HO2)]
 Deg. of freedom     3
 Full point group                 CS      NOp   2
 Largest Abelian subgroup         CS      NOp   2
 Largest concise Abelian subgroup C1      NOp   1
                         Standard orientation:                         
 ---------------------------------------------------------------------
 Center     Atomic      Atomic             Coordinates (Angstroms)
 Number     Number       Type             X           Y           Z
 ---------------------------------------------------------------------
      1          8           0        0.055329    0.718293    0.000000
      2          8           0        0.055329   -0.611983    0.000000
      3          1           0       -0.885259   -0.850475    0.000000
 ---------------------------------------------------------------------
 Rotational constants (GHZ):         619.6351365          33.6938264          31.9561506
 Leave Link  202 at Sat Apr 17 13:56:16 2021, MaxMem=   104857600 cpu:               6.0 elap:               0.1
 (Enter /s/ls4/users/knvvv/bin/g16sse/l301.exe)
 General basis read from cards:  (5D, 7F)
 Centers:       3
 S 4 1.00
     Exponent=  1.9069169000D+02 Coefficients=  7.0815167000D-04
     Exponent=  2.8605532000D+01 Coefficients=  5.4678827000D-03
     Exponent=  6.5095943000D+00 Coefficients=  2.7966605000D-02
     Exponent=  1.8412455000D+00 Coefficients=  1.0764538000D-01
 S 1 1.00
     Exponent=  5.9853725000D-01 Coefficients=  1.0000000000D+00
 S 1 1.00
     Exponent=  2.1397624000D-01 Coefficients=  1.0000000000D+00
 S 1 1.00
     Exponent=  8.0316286000D-02 Coefficients=  1.0000000000D+00
 P 1 1.00
     Exponent=  2.2920000000D+00 Coefficients=  1.0000000000D+00
 P 1 1.00
     Exponent=  8.3800000000D-01 Coefficients=  1.0000000000D+00
 P 1 1.00
     Exponent=  2.9200000000D-01 Coefficients=  1.0000000000D+00
 P 1 1.00
     Exponent=  8.4063199228D-02 Coefficients=  1.0000000000D+00
 D 1 1.00
     Exponent=  2.0620000000D+00 Coefficients=  1.0000000000D+00
 D 1 1.00
     Exponent=  6.6200000000D-01 Coefficients=  1.0000000000D+00
 F 1 1.00
     Exponent=  1.3970000000D+00 Coefficients=  1.0000000000D+00
 ****
 Centers:       1      2
 S 8 1.00
     Exponent=  1.1650646908D+05 Coefficients=  4.0383857939D-05
     Exponent=  1.7504349724D+04 Coefficients=  3.1255139004D-04
     Exponent=  3.9934513230D+03 Coefficients=  1.6341473495D-03
     Exponent=  1.1330063186D+03 Coefficients=  6.8283224757D-03
     Exponent=  3.6999569594D+02 Coefficients=  2.4124410221D-02
     Exponent=  1.3362074349D+02 Coefficients=  7.2730206154D-02
     Exponent=  5.2035643649D+01 Coefficients=  1.7934429892D-01
     Exponent=  2.1461939313D+01 Coefficients=  3.3059588895D-01
 S 2 1.00
     Exponent=  8.9835051252D+01 Coefficients=  9.6468652996D-02
     Exponent=  2.6428010844D+01 Coefficients=  9.4117481120D-01
 S 1 1.00
     Exponent=  9.2822824649D+00 Coefficients=  1.0000000000D+00
 S 1 1.00
     Exponent=  4.0947728533D+00 Coefficients=  1.0000000000D+00
 S 1 1.00
     Exponent=  1.3255349078D+00 Coefficients=  1.0000000000D+00
 S 1 1.00
     Exponent=  5.1877230787D-01 Coefficients=  1.0000000000D+00
 S 1 1.00
     Exponent=  1.9772676454D-01 Coefficients=  1.0000000000D+00
 S 1 1.00
     Exponent=  6.9638535104D-02 Coefficients=  1.0000000000D+00
 P 5 1.00
     Exponent=  1.9115255810D+02 Coefficients=  2.5115697705D-03
     Exponent=  4.5233356739D+01 Coefficients=  2.0039240864D-02
     Exponent=  1.4353465922D+01 Coefficients=  9.3609064762D-02
     Exponent=  5.2422371832D+00 Coefficients=  3.0618127124D-01
     Exponent=  2.0792418599D+00 Coefficients=  6.7810501439D-01
 P 1 1.00
     Exponent=  8.4282371424D-01 Coefficients=  1.0000000000D+00
 P 1 1.00
     Exponent=  3.3617694891D-01 Coefficients=  1.0000000000D+00
 P 1 1.00
     Exponent=  1.2863997974D-01 Coefficients=  1.0000000000D+00
 P 1 1.00
     Exponent=  4.3598162776D-02 Coefficients=  1.0000000000D+00
 D 1 1.00
     Exponent=  3.7750000000D+00 Coefficients=  1.0000000000D+00
 D 1 1.00
     Exponent=  1.3000000000D+00 Coefficients=  1.0000000000D+00
 D 1 1.00
     Exponent=  4.4400000000D-01 Coefficients=  1.0000000000D+00
 D 1 1.00
     Exponent=  1.2546378695D-01 Coefficients=  1.0000000000D+00
 F 1 1.00
     Exponent=  2.6660000000D+00 Coefficients=  1.0000000000D+00
 F 1 1.00
     Exponent=  8.5900000000D-01 Coefficients=  1.0000000000D+00
 G 1 1.00
     Exponent=  1.8460000000D+00 Coefficients=  1.0000000000D+00
 ****
 Ernie: Thresh=  0.10000D-02 Tol=  0.10000D-05 Strict=F.
 There are   136 symmetry adapted cartesian basis functions of A'  symmetry.
 There are    66 symmetry adapted cartesian basis functions of A"  symmetry.
 There are   108 symmetry adapted basis functions of A'  symmetry.
 There are    57 symmetry adapted basis functions of A"  symmetry.
   165 basis functions,   245 primitive gaussians,   202 cartesian basis functions
     9 alpha electrons        8 beta electrons
       nuclear repulsion energy        32.1360886298 Hartrees.
 IExCor= 4336 DFT=T Ex+Corr=M062X ExCW=0 ScaHFX=  0.540000
 ScaDFX=  1.000000  1.000000  1.000000  1.000000 ScalE2=  1.000000  1.000000
 IRadAn=      5 IRanWt=     -1 IRanGd=            0 ICorTp=0 IEmpDi=  4
 NAtoms=    3 NActive=    3 NUniq=    3 SFac= 1.00D+00 NAtFMM=   60 NAOKFM=F Big=F
 Integral buffers will be    131072 words long.
 Raffenetti 2 integral format.
 Two-electron integral symmetry is turned on.
 Leave Link  301 at Sat Apr 17 13:56:16 2021, MaxMem=   104857600 cpu:               6.8 elap:               0.2
 (Enter /s/ls4/users/knvvv/bin/g16sse/l302.exe)
 NPDir=0 NMtPBC=     1 NCelOv=     1 NCel=       1 NClECP=     1 NCelD=      1
         NCelK=      1 NCelE2=     1 NClLst=     1 CellRange=     0.0.
 One-electron integrals computed using PRISM.
 One-electron integral symmetry used in STVInt
 PrsmSu:  requested number of processors reduced to:   4 ShMem   1 Linda.
 PrsmSu:  requested number of processors reduced to:  21 ShMem   1 Linda.
 NBasis=   165 RedAO= T EigKep=  1.34D-04  NBF=   108    57
 NBsUse=   165 1.00D-06 EigRej= -1.00D+00 NBFU=   108    57
 Precomputing XC quadrature grid using
 IXCGrd= 4 IRadAn=           5 IRanWt=          -1 IRanGd=           0 AccXCQ= 0.00D+00.
 Generated NRdTot=       0 NPtTot=           0 NUsed=           0 NTot=          32
 NSgBfM=   202   202   202   202   202 MxSgAt=     3 MxSgA2=     3.
 Leave Link  302 at Sat Apr 17 13:56:19 2021, MaxMem=   104857600 cpu:             158.4 elap:               3.5
 (Enter /s/ls4/users/knvvv/bin/g16sse/l303.exe)
 DipDrv:  MaxL=1.
 Leave Link  303 at Sat Apr 17 13:56:20 2021, MaxMem=   104857600 cpu:              31.0 elap:               0.7
 (Enter /s/ls4/users/knvvv/bin/g16sse/l401.exe)
 SCF N**3 symmetry information disabled.
 ExpMin= 4.36D-02 ExpMax= 1.17D+05 ExpMxC= 1.13D+03 IAcc=3 IRadAn=         5 AccDes= 0.00D+00
 Harris functional with IExCor= 1009 and IRadAn=       5 diagonalized for initial guess.
 HarFok:  IExCor= 1009 AccDes= 0.00D+00 IRadAn=         5 IDoV= 1 UseB2=F ITyADJ=14
 ICtDFT=  3500011 ScaDFX=  1.000000  1.000000  1.000000  1.000000
 FoFCou: FMM=F IPFlag=           0 FMFlag=      100000 FMFlg1=           0
         NFxFlg=           0 DoJE=T BraDBF=F KetDBF=T FulRan=T
         wScrn=  0.000000 ICntrl=       500 IOpCl=  0 I1Cent=   200000004 NGrid=           0
         NMat0=    1 NMatS0=      1 NMatT0=    0 NMatD0=    1 NMtDS0=    0 NMtDT0=    0
 Petite list used in FoFCou.
 CoulSu:  requested number of processors reduced to:  21 ShMem   1 Linda.
 CoulSu:  requested number of processors reduced to:  21 ShMem   1 Linda.
 CoulSu:  requested number of processors reduced to:  21 ShMem   1 Linda.
 CoulSu:  requested number of processors reduced to:  21 ShMem   1 Linda.
 Harris En= -150.828814413236    
 JPrj=0 DoOrth=F DoCkMO=F.
 Initial guess orbital symmetries:
 Alpha Orbitals:
       Occupied  (A') (A') (A') (A') (A') (A') (A") (A') (A")
       Virtual   (A') (A') (A') (A") (A') (A') (A') (A") (A') (A")
                 (A') (A') (A') (A') (A") (A') (A') (A") (A') (A")
                 (A") (A') (A") (A') (A') (A') (A') (A') (A") (A')
                 (A") (A') (A') (A') (A') (A") (A") (A') (A') (A')
                 (A') (A") (A") (A") (A') (A') (A') (A') (A") (A')
                 (A') (A") (A') (A') (A") (A') (A") (A') (A') (A")
                 (A') (A") (A') (A") (A') (A') (A') (A') (A') (A")
                 (A") (A') (A") (A') (A") (A") (A') (A') (A') (A")
                 (A') (A') (A') (A') (A") (A') (A") (A') (A") (A')
                 (A') (A") (A') (A") (A') (A') (A') (A") (A') (A')
                 (A") (A") (A') (A') (A") (A') (A") (A') (A") (A')
                 (A') (A") (A') (A") (A') (A') (A") (A') (A') (A")
                 (A') (A") (A') (A") (A") (A') (A") (A') (A') (A")
                 (A') (A') (A") (A') (A") (A") (A') (A') (A') (A")
                 (A") (A') (A') (A') (A") (A') (A') (A') (A") (A')
                 (A') (A') (A') (A') (A') (A')
 Beta  Orbitals:
       Occupied  (A') (A') (A') (A') (A') (A') (A") (A')
       Virtual   (A") (A') (A') (A') (A") (A') (A') (A') (A") (A')
                 (A") (A') (A') (A') (A') (A") (A') (A') (A") (A')
                 (A") (A") (A') (A") (A') (A') (A') (A') (A') (A")
                 (A') (A") (A') (A') (A') (A') (A") (A") (A') (A')
                 (A') (A') (A") (A") (A") (A') (A') (A') (A') (A")
                 (A') (A') (A") (A') (A') (A") (A') (A") (A') (A')
                 (A") (A') (A") (A') (A") (A') (A') (A') (A') (A')
                 (A") (A") (A') (A") (A') (A") (A") (A') (A') (A')
                 (A") (A') (A') (A') (A') (A") (A') (A") (A') (A")
                 (A') (A') (A") (A') (A") (A') (A') (A') (A") (A')
                 (A') (A") (A") (A') (A') (A") (A') (A") (A') (A")
                 (A') (A') (A") (A') (A") (A') (A') (A") (A') (A')
                 (A") (A') (A") (A') (A") (A") (A') (A") (A') (A')
                 (A") (A') (A') (A") (A') (A") (A") (A') (A') (A')
                 (A") (A") (A') (A') (A') (A") (A') (A') (A') (A")
                 (A') (A') (A') (A') (A') (A') (A')
 The electronic state of the initial guess is 2-A".
 Initial guess <Sx>= 0.0000 <Sy>= 0.0000 <Sz>= 0.5000 <S**2>= 0.7500 S= 0.5000
 Leave Link  401 at Sat Apr 17 13:56:22 2021, MaxMem=   104857600 cpu:              98.0 elap:               2.3
 (Enter /s/ls4/users/knvvv/bin/g16sse/l502.exe)
 Integral symmetry usage will be decided dynamically.
 UHF open shell SCF:
 Using DIIS extrapolation, IDIIS=  1040.
 NGot=   104857600 LenX=   104764197 LenY=   104722952
 Requested convergence on RMS density matrix=1.00D-08 within 128 cycles.
 Requested convergence on MAX density matrix=1.00D-06.
 Requested convergence on             energy=1.00D-06.
 No special actions if energy rises.
 Fock matrices will be formed incrementally for  20 cycles.

 Cycle   1  Pass 1  IDiag  1:
 FoFJK:  IHMeth= 1 ICntrl=       0 DoSepK=F KAlg= 0 I1Cent=           0 FoldK=F
 IRaf= 990000000 NMat=       1 IRICut=       1 DoRegI=T DoRafI=F ISym2E= 1 IDoP0=0 IntGTp=1.
 FoFCou: FMM=F IPFlag=           0 FMFlag=      100000 FMFlg1=           0
         NFxFlg=           0 DoJE=F BraDBF=F KetDBF=F FulRan=T
         wScrn=  0.000000 ICntrl=         0 IOpCl=  1 I1Cent=           0 NGrid=           0
         NMat0=    1 NMatS0=      1 NMatT0=    0 NMatD0=    1 NMtDS0=    0 NMtDT0=    0
 Petite list used in FoFCou.
 CoulSu:  requested number of processors reduced to:  20 ShMem   1 Linda.
 E= -150.893258482188    
 DIIS: error= 4.02D-02 at cycle   1 NSaved=   1.
 NSaved= 1 IEnMin= 1 EnMin= -150.893258482188     IErMin= 1 ErrMin= 4.02D-02
 ErrMax= 4.02D-02  0.00D+00 EMaxC= 1.00D-01 BMatC= 3.82D-01 BMatP= 3.82D-01
 IDIUse=3 WtCom= 5.98D-01 WtEn= 4.02D-01
 Coeff-Com:  0.100D+01
 Coeff-En:   0.100D+01
 Coeff:      0.100D+01
 Gap=     0.366 Goal=   None    Shift=    0.000
 Gap=     0.278 Goal=   None    Shift=    0.000
 GapD=    0.278 DampG=1.000 DampE=0.500 DampFc=0.5000 IDamp=-1.
 Damping current iteration by 5.00D-01
 RMSDP=9.98D-04 MaxDP=3.52D-02              OVMax= 1.28D-01

 Cycle   2  Pass 1  IDiag  1:
 RMSU=  4.99D-04    CP:  1.00D+00
 CoulSu:  requested number of processors reduced to:  20 ShMem   1 Linda.
 E= -150.905697665645     Delta-E=       -0.012439183456 Rises=F Damp=T
 DIIS: error= 2.01D-02 at cycle   2 NSaved=   2.
 NSaved= 2 IEnMin= 2 EnMin= -150.905697665645     IErMin= 2 ErrMin= 2.01D-02
 ErrMax= 2.01D-02  0.00D+00 EMaxC= 1.00D-01 BMatC= 8.59D-02 BMatP= 3.82D-01
 IDIUse=3 WtCom= 7.99D-01 WtEn= 2.01D-01
 Coeff-Com: -0.509D+00 0.151D+01
 Coeff-En:   0.000D+00 0.100D+01
 Coeff:     -0.407D+00 0.141D+01
 Gap=     0.424 Goal=   None    Shift=    0.000
 Gap=     0.299 Goal=   None    Shift=    0.000
 RMSDP=4.68D-04 MaxDP=1.26D-02 DE=-1.24D-02 OVMax= 6.67D-02

 Cycle   3  Pass 1  IDiag  1:
 RMSU=  4.41D-04    CP:  1.00D+00  1.31D+00
 CoulSu:  requested number of processors reduced to:  20 ShMem   1 Linda.
 E= -150.912369544022     Delta-E=       -0.006671878377 Rises=F Damp=F
 DIIS: error= 9.25D-03 at cycle   3 NSaved=   3.
 NSaved= 3 IEnMin= 3 EnMin= -150.912369544022     IErMin= 3 ErrMin= 9.25D-03
 ErrMax= 9.25D-03  0.00D+00 EMaxC= 1.00D-01 BMatC= 4.52D-02 BMatP= 8.59D-02
 IDIUse=3 WtCom= 9.07D-01 WtEn= 9.25D-02
 Coeff-Com: -0.377D+00 0.834D+00 0.544D+00
 Coeff-En:   0.000D+00 0.000D+00 0.100D+01
 Coeff:     -0.343D+00 0.757D+00 0.586D+00
 Gap=     0.405 Goal=   None    Shift=    0.000
 Gap=     0.289 Goal=   None    Shift=    0.000
 RMSDP=2.84D-04 MaxDP=9.86D-03 DE=-6.67D-03 OVMax= 6.24D-02

 Cycle   4  Pass 1  IDiag  1:
 RMSU=  1.82D-04    CP:  1.00D+00  1.61D+00  6.37D-01
 CoulSu:  requested number of processors reduced to:  20 ShMem   1 Linda.
 E= -150.919170518527     Delta-E=       -0.006800974505 Rises=F Damp=F
 DIIS: error= 3.05D-03 at cycle   4 NSaved=   4.
 NSaved= 4 IEnMin= 4 EnMin= -150.919170518527     IErMin= 4 ErrMin= 3.05D-03
 ErrMax= 3.05D-03  0.00D+00 EMaxC= 1.00D-01 BMatC= 6.40D-03 BMatP= 4.52D-02
 IDIUse=3 WtCom= 9.70D-01 WtEn= 3.05D-02
 Coeff-Com: -0.123D+00 0.248D+00 0.329D+00 0.546D+00
 Coeff-En:   0.000D+00 0.000D+00 0.753D-01 0.925D+00
 Coeff:     -0.120D+00 0.241D+00 0.321D+00 0.558D+00
 Gap=     0.398 Goal=   None    Shift=    0.000
 Gap=     0.292 Goal=   None    Shift=    0.000
 RMSDP=8.73D-05 MaxDP=3.25D-03 DE=-6.80D-03 OVMax= 8.76D-03

 Cycle   5  Pass 1  IDiag  1:
 RMSU=  5.90D-05    CP:  1.00D+00  1.57D+00  7.18D-01  7.25D-01
 CoulSu:  requested number of processors reduced to:  20 ShMem   1 Linda.
 E= -150.920170210566     Delta-E=       -0.000999692039 Rises=F Damp=F
 DIIS: error= 7.90D-04 at cycle   5 NSaved=   5.
 NSaved= 5 IEnMin= 5 EnMin= -150.920170210566     IErMin= 5 ErrMin= 7.90D-04
 ErrMax= 7.90D-04  0.00D+00 EMaxC= 1.00D-01 BMatC= 1.58D-04 BMatP= 6.40D-03
 IDIUse=3 WtCom= 9.92D-01 WtEn= 7.90D-03
 Coeff-Com:  0.173D-01-0.412D-01 0.130D-01 0.509D-01 0.960D+00
 Coeff-En:   0.000D+00 0.000D+00 0.000D+00 0.000D+00 0.100D+01
 Coeff:      0.172D-01-0.409D-01 0.129D-01 0.505D-01 0.960D+00
 Gap=     0.400 Goal=   None    Shift=    0.000
 Gap=     0.293 Goal=   None    Shift=    0.000
 RMSDP=3.83D-05 MaxDP=1.51D-03 DE=-1.00D-03 OVMax= 1.00D-02

 Cycle   6  Pass 1  IDiag  1:
 RMSU=  1.86D-05    CP:  1.00D+00  1.57D+00  7.47D-01  8.47D-01  1.36D+00
 CoulSu:  requested number of processors reduced to:  20 ShMem   1 Linda.
 E= -150.920272940643     Delta-E=       -0.000102730077 Rises=F Damp=F
 DIIS: error= 4.14D-04 at cycle   6 NSaved=   6.
 NSaved= 6 IEnMin= 6 EnMin= -150.920272940643     IErMin= 6 ErrMin= 4.14D-04
 ErrMax= 4.14D-04  0.00D+00 EMaxC= 1.00D-01 BMatC= 6.67D-05 BMatP= 1.58D-04
 IDIUse=3 WtCom= 9.96D-01 WtEn= 4.14D-03
 Coeff-Com:  0.333D-01-0.648D-01-0.768D-01-0.206D+00-0.421D-01 0.136D+01
 Coeff-En:   0.000D+00 0.000D+00 0.000D+00 0.000D+00 0.000D+00 0.100D+01
 Coeff:      0.332D-01-0.645D-01-0.764D-01-0.205D+00-0.419D-01 0.135D+01
 Gap=     0.402 Goal=   None    Shift=    0.000
 Gap=     0.294 Goal=   None    Shift=    0.000
 RMSDP=3.79D-05 MaxDP=1.40D-03 DE=-1.03D-04 OVMax= 1.02D-02

 Cycle   7  Pass 1  IDiag  1:
 RMSU=  1.02D-05    CP:  1.00D+00  1.57D+00  7.72D-01  9.10D-01  1.86D+00
                    CP:  1.76D+00
 CoulSu:  requested number of processors reduced to:  20 ShMem   1 Linda.
 E= -150.920329891052     Delta-E=       -0.000056950409 Rises=F Damp=F
 DIIS: error= 1.35D-04 at cycle   7 NSaved=   7.
 NSaved= 7 IEnMin= 7 EnMin= -150.920329891052     IErMin= 7 ErrMin= 1.35D-04
 ErrMax= 1.35D-04  0.00D+00 EMaxC= 1.00D-01 BMatC= 6.31D-06 BMatP= 6.67D-05
 IDIUse=3 WtCom= 9.99D-01 WtEn= 1.35D-03
 Coeff-Com: -0.191D-01 0.387D-01 0.439D-01 0.866D-01-0.136D+00-0.657D+00
 Coeff-Com:  0.164D+01
 Coeff-En:   0.000D+00 0.000D+00 0.000D+00 0.000D+00 0.000D+00 0.000D+00
 Coeff-En:   0.100D+01
 Coeff:     -0.191D-01 0.387D-01 0.439D-01 0.864D-01-0.136D+00-0.656D+00
 Coeff:      0.164D+01
 Gap=     0.402 Goal=   None    Shift=    0.000
 Gap=     0.294 Goal=   None    Shift=    0.000
 RMSDP=1.63D-05 MaxDP=7.50D-04 DE=-5.70D-05 OVMax= 4.63D-03

 Cycle   8  Pass 1  IDiag  1:
 RMSU=  2.89D-06    CP:  1.00D+00  1.57D+00  7.81D-01  9.26D-01  2.01D+00
                    CP:  2.22D+00  1.87D+00
 CoulSu:  requested number of processors reduced to:  20 ShMem   1 Linda.
 E= -150.920337352535     Delta-E=       -0.000007461483 Rises=F Damp=F
 DIIS: error= 2.11D-05 at cycle   8 NSaved=   8.
 NSaved= 8 IEnMin= 8 EnMin= -150.920337352535     IErMin= 8 ErrMin= 2.11D-05
 ErrMax= 2.11D-05  0.00D+00 EMaxC= 1.00D-01 BMatC= 2.20D-07 BMatP= 6.31D-06
 IDIUse=1 WtCom= 1.00D+00 WtEn= 0.00D+00
 Coeff-Com: -0.251D-03 0.363D-03 0.556D-03 0.995D-03 0.169D-01-0.203D-01
 Coeff-Com: -0.173D+00 0.117D+01
 Coeff:     -0.251D-03 0.363D-03 0.556D-03 0.995D-03 0.169D-01-0.203D-01
 Coeff:     -0.173D+00 0.117D+01
 Gap=     0.402 Goal=   None    Shift=    0.000
 Gap=     0.295 Goal=   None    Shift=    0.000
 RMSDP=2.57D-06 MaxDP=1.06D-04 DE=-7.46D-06 OVMax= 6.43D-04

 Cycle   9  Pass 1  IDiag  1:
 RMSU=  8.77D-07    CP:  1.00D+00  1.57D+00  7.83D-01  9.26D-01  2.03D+00
                    CP:  2.27D+00  2.03D+00  1.33D+00
 CoulSu:  requested number of processors reduced to:  20 ShMem   1 Linda.
 E= -150.920337528935     Delta-E=       -0.000000176400 Rises=F Damp=F
 DIIS: error= 4.83D-06 at cycle   9 NSaved=   9.
 NSaved= 9 IEnMin= 9 EnMin= -150.920337528935     IErMin= 9 ErrMin= 4.83D-06
 ErrMax= 4.83D-06  0.00D+00 EMaxC= 1.00D-01 BMatC= 1.12D-08 BMatP= 2.20D-07
 IDIUse=1 WtCom= 1.00D+00 WtEn= 0.00D+00
 Coeff-Com:  0.800D-03-0.160D-02-0.170D-02-0.366D-02 0.285D-02 0.334D-01
 Coeff-Com: -0.507D-01-0.199D+00 0.122D+01
 Coeff:      0.800D-03-0.160D-02-0.170D-02-0.366D-02 0.285D-02 0.334D-01
 Coeff:     -0.507D-01-0.199D+00 0.122D+01
 Gap=     0.402 Goal=   None    Shift=    0.000
 Gap=     0.295 Goal=   None    Shift=    0.000
 RMSDP=5.00D-07 MaxDP=1.59D-05 DE=-1.76D-07 OVMax= 4.50D-05

 Cycle  10  Pass 1  IDiag  1:
 RMSU=  2.34D-07    CP:  1.00D+00  1.57D+00  7.83D-01  9.26D-01  2.03D+00
                    CP:  2.27D+00  2.05D+00  1.41D+00  1.35D+00
 CoulSu:  requested number of processors reduced to:  20 ShMem   1 Linda.
 E= -150.920337536146     Delta-E=       -0.000000007212 Rises=F Damp=F
 DIIS: error= 1.63D-06 at cycle  10 NSaved=  10.
 NSaved=10 IEnMin=10 EnMin= -150.920337536146     IErMin=10 ErrMin= 1.63D-06
 ErrMax= 1.63D-06  0.00D+00 EMaxC= 1.00D-01 BMatC= 1.08D-09 BMatP= 1.12D-08
 IDIUse=1 WtCom= 1.00D+00 WtEn= 0.00D+00
 Coeff-Com: -0.868D-04 0.180D-03 0.149D-03 0.511D-03-0.101D-02-0.302D-02
 Coeff-Com:  0.163D-01-0.455D-01-0.182D+00 0.121D+01
 Coeff:     -0.868D-04 0.180D-03 0.149D-03 0.511D-03-0.101D-02-0.302D-02
 Coeff:      0.163D-01-0.455D-01-0.182D+00 0.121D+01
 Gap=     0.402 Goal=   None    Shift=    0.000
 Gap=     0.295 Goal=   None    Shift=    0.000
 RMSDP=1.52D-07 MaxDP=4.56D-06 DE=-7.21D-09 OVMax= 1.54D-05

 Cycle  11  Pass 1  IDiag  1:
 RMSU=  6.21D-08    CP:  1.00D+00  1.57D+00  7.83D-01  9.26D-01  2.03D+00
                    CP:  2.27D+00  2.05D+00  1.42D+00  1.44D+00  1.48D+00
 CoulSu:  requested number of processors reduced to:  20 ShMem   1 Linda.
 E= -150.920337536880     Delta-E=       -0.000000000734 Rises=F Damp=F
 DIIS: error= 4.80D-07 at cycle  11 NSaved=  11.
 NSaved=11 IEnMin=11 EnMin= -150.920337536880     IErMin=11 ErrMin= 4.80D-07
 ErrMax= 4.80D-07  0.00D+00 EMaxC= 1.00D-01 BMatC= 8.73D-11 BMatP= 1.08D-09
 IDIUse=1 WtCom= 1.00D+00 WtEn= 0.00D+00
 Coeff-Com: -0.435D-04 0.850D-04 0.937D-04 0.180D-03 0.197D-04-0.257D-02
 Coeff-Com:  0.183D-02 0.258D-01-0.967D-01-0.161D+00 0.123D+01
 Coeff:     -0.435D-04 0.850D-04 0.937D-04 0.180D-03 0.197D-04-0.257D-02
 Coeff:      0.183D-02 0.258D-01-0.967D-01-0.161D+00 0.123D+01
 Gap=     0.402 Goal=   None    Shift=    0.000
 Gap=     0.295 Goal=   None    Shift=    0.000
 RMSDP=5.90D-08 MaxDP=1.69D-06 DE=-7.34D-10 OVMax= 5.79D-06

 Cycle  12  Pass 1  IDiag  1:
 RMSU=  2.07D-08    CP:  1.00D+00  1.57D+00  7.83D-01  9.26D-01  2.03D+00
                    CP:  2.28D+00  2.05D+00  1.42D+00  1.46D+00  1.65D+00
                    CP:  1.43D+00
 CoulSu:  requested number of processors reduced to:  20 ShMem   1 Linda.
 E= -150.920337536949     Delta-E=       -0.000000000069 Rises=F Damp=F
 DIIS: error= 1.14D-07 at cycle  12 NSaved=  12.
 NSaved=12 IEnMin=12 EnMin= -150.920337536949     IErMin=12 ErrMin= 1.14D-07
 ErrMax= 1.14D-07  0.00D+00 EMaxC= 1.00D-01 BMatC= 5.10D-12 BMatP= 8.73D-11
 IDIUse=1 WtCom= 1.00D+00 WtEn= 0.00D+00
 Coeff-Com:  0.350D-05-0.731D-05-0.423D-05-0.101D-04 0.401D-04 0.167D-03
 Coeff-Com: -0.587D-03 0.778D-03 0.136D-01-0.551D-01-0.674D-01 0.111D+01
 Coeff:      0.350D-05-0.731D-05-0.423D-05-0.101D-04 0.401D-04 0.167D-03
 Coeff:     -0.587D-03 0.778D-03 0.136D-01-0.551D-01-0.674D-01 0.111D+01
 Gap=     0.402 Goal=   None    Shift=    0.000
 Gap=     0.295 Goal=   None    Shift=    0.000
 RMSDP=1.24D-08 MaxDP=2.92D-07 DE=-6.95D-11 OVMax= 1.56D-06

 Cycle  13  Pass 1  IDiag  1:
 RMSU=  4.91D-09    CP:  1.00D+00  1.57D+00  7.83D-01  9.26D-01  2.03D+00
                    CP:  2.28D+00  2.05D+00  1.42D+00  1.46D+00  1.67D+00
                    CP:  1.54D+00  1.30D+00
 CoulSu:  requested number of processors reduced to:  20 ShMem   1 Linda.
 E= -150.920337536953     Delta-E=       -0.000000000003 Rises=F Damp=F
 DIIS: error= 4.95D-08 at cycle  13 NSaved=  13.
 NSaved=13 IEnMin=13 EnMin= -150.920337536953     IErMin=13 ErrMin= 4.95D-08
 ErrMax= 4.95D-08  0.00D+00 EMaxC= 1.00D-01 BMatC= 6.88D-13 BMatP= 5.10D-12
 IDIUse=1 WtCom= 1.00D+00 WtEn= 0.00D+00
 Coeff-Com:  0.240D-05-0.458D-05-0.525D-05-0.633D-05-0.165D-04 0.209D-03
 Coeff-Com: -0.716D-04-0.269D-02 0.103D-01 0.172D-01-0.130D+00-0.492D-01
 Coeff-Com:  0.115D+01
 Coeff:      0.240D-05-0.458D-05-0.525D-05-0.633D-05-0.165D-04 0.209D-03
 Coeff:     -0.716D-04-0.269D-02 0.103D-01 0.172D-01-0.130D+00-0.492D-01
 Coeff:      0.115D+01
 Gap=     0.402 Goal=   None    Shift=    0.000
 Gap=     0.295 Goal=   None    Shift=    0.000
 RMSDP=4.74D-09 MaxDP=1.03D-07 DE=-3.41D-12 OVMax= 6.45D-07

 SCF Done:  E(UM062X) =  -150.920337537     A.U. after   13 cycles
            NFock= 13  Conv=0.47D-08     -V/T= 2.0033
 <Sx>= 0.0000 <Sy>= 0.0000 <Sz>= 0.5000 <S**2>= 0.7554 S= 0.5027
 <L.S>= 0.000000000000E+00
 KE= 1.504305240302D+02 PE=-4.214074426127D+02 EE= 8.792049241579D+01
 Annihilation of the first spin contaminant:
 S**2 before annihilation     0.7554,   after     0.7500
 Leave Link  502 at Sat Apr 17 13:58:29 2021, MaxMem=   104857600 cpu:            5718.6 elap:             127.0
 (Enter /s/ls4/users/knvvv/bin/g16sse/l601.exe)
 Copying SCF densities to generalized density rwf, IOpCl= 1 IROHF=0.

 **********************************************************************

            Population analysis using the SCF density.

 **********************************************************************

 Orbital symmetries:
 Alpha Orbitals:
       Occupied  (A') (A') (A') (A') (A') (A") (A') (A') (A")
       Virtual   (A') (A') (A") (A') (A') (A") (A') (A') (A') (A")
                 (A') (A') (A') (A') (A") (A') (A') (A") (A") (A')
                 (A') (A") (A") (A') (A') (A') (A') (A') (A") (A')
                 (A") (A') (A') (A') (A') (A") (A") (A') (A') (A')
                 (A') (A") (A") (A") (A') (A') (A') (A') (A") (A')
                 (A') (A") (A') (A') (A") (A') (A") (A') (A') (A")
                 (A') (A") (A') (A") (A') (A') (A') (A') (A') (A")
                 (A") (A') (A") (A') (A") (A") (A') (A') (A') (A")
                 (A') (A') (A') (A") (A') (A') (A") (A') (A") (A')
                 (A') (A") (A') (A") (A') (A') (A') (A") (A') (A')
                 (A") (A") (A') (A') (A') (A") (A") (A') (A") (A')
                 (A') (A") (A') (A") (A') (A') (A") (A') (A') (A")
                 (A') (A") (A') (A") (A") (A') (A") (A') (A') (A')
                 (A") (A') (A") (A') (A") (A") (A') (A') (A') (A")
                 (A") (A') (A') (A') (A") (A') (A') (A") (A') (A')
                 (A') (A') (A') (A') (A') (A')
 Beta  Orbitals:
       Occupied  (A') (A') (A') (A') (A') (A') (A") (A')
       Virtual   (A") (A') (A') (A") (A') (A') (A') (A") (A') (A")
                 (A') (A') (A') (A') (A') (A") (A') (A") (A') (A')
                 (A') (A") (A") (A") (A') (A') (A') (A') (A') (A")
                 (A') (A") (A') (A') (A') (A') (A") (A") (A') (A')
                 (A') (A') (A") (A") (A") (A') (A') (A') (A') (A")
                 (A') (A') (A") (A') (A') (A") (A') (A") (A') (A')
                 (A") (A') (A") (A') (A") (A') (A') (A') (A') (A')
                 (A") (A") (A') (A") (A') (A") (A") (A') (A') (A')
                 (A") (A') (A') (A') (A") (A') (A') (A") (A') (A")
                 (A') (A') (A") (A') (A") (A') (A') (A') (A") (A')
                 (A') (A") (A") (A') (A') (A') (A") (A") (A') (A")
                 (A') (A') (A") (A") (A') (A') (A') (A") (A') (A')
                 (A") (A') (A") (A') (A") (A") (A") (A') (A') (A')
                 (A') (A") (A') (A") (A') (A") (A") (A') (A') (A')
                 (A') (A") (A") (A') (A') (A") (A') (A') (A") (A')
                 (A') (A') (A') (A') (A') (A') (A')
 The electronic state is 2-A".
 Alpha  occ. eigenvalues --  -19.75730 -19.72373  -1.33858  -1.00017  -0.65972
 Alpha  occ. eigenvalues --   -0.59902  -0.57584  -0.39891  -0.39833
 Alpha virt. eigenvalues --    0.00335   0.03753   0.05473   0.06047   0.09094
 Alpha virt. eigenvalues --    0.09780   0.09841   0.14215   0.16332   0.16533
 Alpha virt. eigenvalues --    0.22119   0.23703   0.24602   0.33770   0.36396
 Alpha virt. eigenvalues --    0.36600   0.41114   0.41419   0.42472   0.43283
 Alpha virt. eigenvalues --    0.43480   0.44290   0.47453   0.49519   0.51371
 Alpha virt. eigenvalues --    0.56190   0.59833   0.61881   0.63384   0.67839
 Alpha virt. eigenvalues --    0.77411   0.86219   0.91287   1.04211   1.11947
 Alpha virt. eigenvalues --    1.18060   1.24431   1.26337   1.29688   1.32244
 Alpha virt. eigenvalues --    1.42302   1.43351   1.48028   1.48649   1.51920
 Alpha virt. eigenvalues --    1.56302   1.59442   1.80153   1.86749   1.91117
 Alpha virt. eigenvalues --    1.97987   2.04806   2.11614   2.31394   2.40017
 Alpha virt. eigenvalues --    2.54753   2.58871   2.62859   2.65646   3.02561
 Alpha virt. eigenvalues --    3.05094   3.10676   3.16181   3.17443   3.26218
 Alpha virt. eigenvalues --    3.30224   3.31809   3.52210   3.68797   3.82199
 Alpha virt. eigenvalues --    3.88613   3.98130   3.98186   4.04397   4.08262
 Alpha virt. eigenvalues --    4.10487   4.11423   4.20045   4.29294   4.31638
 Alpha virt. eigenvalues --    4.37231   4.45843   4.65235   4.71428   4.73017
 Alpha virt. eigenvalues --    4.81990   5.06725   5.23267   5.25153   5.39267
 Alpha virt. eigenvalues --    5.47778   5.76902   5.90937   6.41918   6.58125
 Alpha virt. eigenvalues --    6.96827   7.14856   7.16828   7.24223   7.33838
 Alpha virt. eigenvalues --    7.58522   7.60978   7.72906   7.86545   8.24846
 Alpha virt. eigenvalues --    8.29162   8.35083   8.36358   8.40926   8.51132
 Alpha virt. eigenvalues --    8.58715   8.75553   8.75597   8.76372   8.89659
 Alpha virt. eigenvalues --    9.00688   9.54319   9.67086   9.88532   9.94699
 Alpha virt. eigenvalues --   10.26852  10.41985  10.52459  10.71045  10.76455
 Alpha virt. eigenvalues --   10.77546  10.82746  10.97908  11.00771  11.19304
 Alpha virt. eigenvalues --   11.20871  11.22664  11.27688  11.32773  11.42425
 Alpha virt. eigenvalues --   11.53820  11.60099  11.72590  11.89847  11.90561
 Alpha virt. eigenvalues --   11.95691  11.96311  12.01312  12.27236  12.84897
 Alpha virt. eigenvalues --   12.98116  13.43390  13.51526  13.54078  14.00609
 Alpha virt. eigenvalues --   14.45178  16.29837  47.59075  48.12945 250.56643
 Alpha virt. eigenvalues --  251.21171
  Beta  occ. eigenvalues --  -19.75002 -19.70816  -1.30557  -0.95013  -0.64155
  Beta  occ. eigenvalues --   -0.55290  -0.49696  -0.36988
  Beta virt. eigenvalues --   -0.07527   0.00532   0.03880   0.05812   0.06060
  Beta virt. eigenvalues --    0.09231   0.09781   0.10573   0.15022   0.16802
  Beta virt. eigenvalues --    0.16897   0.22272   0.24029   0.25287   0.34095
  Beta virt. eigenvalues --    0.36419   0.36814   0.40834   0.41287   0.42872
  Beta virt. eigenvalues --    0.43513   0.43646   0.43865   0.47595   0.49735
  Beta virt. eigenvalues --    0.51665   0.56309   0.60085   0.62382   0.63210
  Beta virt. eigenvalues --    0.67300   0.77746   0.85993   0.92127   1.04572
  Beta virt. eigenvalues --    1.12327   1.19784   1.25969   1.26738   1.30639
  Beta virt. eigenvalues --    1.33348   1.42616   1.44866   1.50501   1.51638
  Beta virt. eigenvalues --    1.52579   1.56694   1.60479   1.80338   1.88223
  Beta virt. eigenvalues --    1.91580   1.98138   2.04923   2.11453   2.31781
  Beta virt. eigenvalues --    2.40204   2.55157   2.59179   2.63221   2.65973
  Beta virt. eigenvalues --    3.03074   3.05859   3.12197   3.17113   3.18446
  Beta virt. eigenvalues --    3.26995   3.31069   3.31559   3.52759   3.70255
  Beta virt. eigenvalues --    3.83077   3.89642   3.99158   4.01337   4.04653
  Beta virt. eigenvalues --    4.09404   4.11124   4.11751   4.22194   4.29718
  Beta virt. eigenvalues --    4.32332   4.37138   4.46308   4.65528   4.72097
  Beta virt. eigenvalues --    4.74103   4.81731   5.11747   5.23946   5.28876
  Beta virt. eigenvalues --    5.39412   5.48345   5.77151   5.90882   6.42224
  Beta virt. eigenvalues --    6.58249   6.97245   7.15243   7.17563   7.24569
  Beta virt. eigenvalues --    7.34299   7.59312   7.61055   7.73123   7.86803
  Beta virt. eigenvalues --    8.25157   8.31003   8.36475   8.37652   8.42056
  Beta virt. eigenvalues --    8.52901   8.60114   8.78861   8.80058   8.81512
  Beta virt. eigenvalues --    8.90665   9.00012   9.55640   9.67154   9.89404
  Beta virt. eigenvalues --    9.95352  10.27632  10.43849  10.53067  10.72586
  Beta virt. eigenvalues --   10.87390  10.87941  10.91543  10.99497  11.03973
  Beta virt. eigenvalues --   11.21666  11.25459  11.25672  11.31585  11.34756
  Beta virt. eigenvalues --   11.48391  11.57546  11.59807  11.71796  11.90567
  Beta virt. eigenvalues --   12.01630  12.01795  12.03041  12.12116  12.28997
  Beta virt. eigenvalues --   12.92103  12.98310  13.43451  13.54042  13.62127
  Beta virt. eigenvalues --   14.03771  14.46956  16.29623  47.65388  48.13637
  Beta virt. eigenvalues --  250.55212 251.19275
          Condensed to atoms (all electrons):
               1          2          3
     1  O    8.246275  -0.045086  -0.033840
     2  O   -0.045086   8.033565   0.255517
     3  H   -0.033840   0.255517   0.366977
          Atomic-Atomic Spin Densities.
               1          2          3
     1  O    0.891527  -0.112402  -0.010965
     2  O   -0.112402   0.350432   0.005487
     3  H   -0.010965   0.005487  -0.006198
 Mulliken charges and spin densities:
               1          2
     1  O   -0.167350   0.768160
     2  O   -0.243996   0.243516
     3  H    0.411346  -0.011676
 Sum of Mulliken charges =  -0.00000   1.00000
 Mulliken charges and spin densities with hydrogens summed into heavy atoms:
               1          2
     1  O   -0.167350   0.768160
     2  O    0.167350   0.231840
 Electronic spatial extent (au):  <R**2>=             54.8248
 Charge=             -0.0000 electrons
 Dipole moment (field-independent basis, Debye):
    X=             -1.6975    Y=             -1.3538    Z=              0.0000  Tot=              2.1713
 Quadrupole moment (field-independent basis, Debye-Ang):
   XX=             -9.9423   YY=            -11.0194   ZZ=            -11.0890
   XY=              1.6745   XZ=              0.0000   YZ=              0.0000
 Traceless Quadrupole moment (field-independent basis, Debye-Ang):
   XX=              0.7413   YY=             -0.3358   ZZ=             -0.4054
   XY=              1.6745   XZ=              0.0000   YZ=              0.0000
 Octapole moment (field-independent basis, Debye-Ang**2):
  XXX=             -2.1662  YYY=             -1.5765  ZZZ=              0.0000  XYY=             -1.6412
  XXY=             -2.0725  XXZ=              0.0000  XZZ=             -0.1493  YZZ=              0.1062
  YYZ=              0.0000  XYZ=              0.0000
 Hexadecapole moment (field-independent basis, Debye-Ang**3):
 XXXX=             -9.6398 YYYY=            -37.2864 ZZZZ=             -8.6275 XXXY=              0.3530
 XXXZ=              0.0000 YYYX=              0.5190 YYYZ=              0.0000 ZZZX=              0.0000
 ZZZY=              0.0000 XXYY=             -7.8706 XXZZ=             -3.3193 YYZZ=             -8.0914
 XXYZ=              0.0000 YYXZ=              0.0000 ZZXY=             -0.2893
 N-N= 3.213608862982D+01 E-N=-4.214074428644D+02  KE= 1.504305240302D+02
                          Isotropic Fermi Contact Couplings
        Atom                 a.u.       MegaHertz       Gauss      10(-4) cm-1
     1  O(17)              0.12206     -73.99236     -26.40231     -24.68119
     2  O(17)              0.04353     -26.39044      -9.41676      -8.80290
     3  H(1)              -0.00649     -29.01539     -10.35341      -9.67849
 PrsmSu:  requested number of processors reduced to:  21 ShMem   1 Linda.
 --------------------------------------------------------
       Center         ----  Spin Dipole Couplings  ----
                      3XX-RR        3YY-RR        3ZZ-RR
 --------------------------------------------------------
     1   Atom       -1.667655     -1.691197      3.358852
     2   Atom       -0.702438     -0.809262      1.511700
     3   Atom        0.047440     -0.021804     -0.025636
 --------------------------------------------------------
                        XY            XZ            YZ
 --------------------------------------------------------
     1   Atom       -0.010028      0.000000      0.000000
     2   Atom        0.028378      0.000000      0.000000
     3   Atom        0.038417      0.000000      0.000000
 --------------------------------------------------------


 ---------------------------------------------------------------------------------
              Anisotropic Spin Dipole Couplings in Principal Axis System
 ---------------------------------------------------------------------------------

       Atom             a.u.   MegaHertz   Gauss  10(-4) cm-1        Axes

              Baa    -1.6949   122.641    43.761    40.909  0.3455  0.9384  0.0000
     1 O(17)  Bbb    -1.6640   120.403    42.963    40.162  0.9384 -0.3455 -0.0000
              Bcc     3.3589  -243.044   -86.724   -81.071  0.0000  0.0000  1.0000
 
              Baa    -0.8163    59.069    21.077    19.703 -0.2418  0.9703  0.0000
     2 O(17)  Bbb    -0.6954    50.316    17.954    16.784  0.9703  0.2418  0.0000
              Bcc     1.5117  -109.386   -39.031   -36.487  0.0000  0.0000  1.0000
 
              Baa    -0.0389   -20.754    -7.406    -6.923 -0.4065  0.9136 -0.0000
     3 H(1)   Bbb    -0.0256   -13.678    -4.881    -4.563  0.0000  0.0000  1.0000
              Bcc     0.0645    34.432    12.286    11.485  0.9136  0.4065  0.0000
 

 ---------------------------------------------------------------------------------

 PrsmSu:  requested number of processors reduced to:  21 ShMem   1 Linda.
 No NMR shielding tensors so no spin-rotation constants.
 Leave Link  601 at Sat Apr 17 13:58:32 2021, MaxMem=   104857600 cpu:             136.0 elap:               3.1
 (Enter /s/ls4/users/knvvv/bin/g16sse/l801.exe)
 DoSCS=F DFT=T ScalE2(SS,OS)=  1.000000  1.000000
 Range of M.O.s used for correlation:     1   165
 NBasis=   165 NAE=     9 NBE=     8 NFC=     0 NFV=     0
 NROrb=    165 NOA=     9 NOB=     8 NVA=   156 NVB=   157

 **** Warning!!: The largest alpha MO coefficient is  0.25907995D+02


 **** Warning!!: The largest beta MO coefficient is  0.26263380D+02

 Leave Link  801 at Sat Apr 17 13:58:32 2021, MaxMem=   104857600 cpu:               3.8 elap:               0.1
 (Enter /s/ls4/users/knvvv/bin/g16sse/l914.exe)
 UHF ground state
 Doing stability rather than CIS.
 Two-electron integrals replicated using symmetry.
 MDV=   104857600 DFT=T DoStab=T Mixed=T DoRPA=F DoScal=F NonHer=F
 Making orbital integer symmetry assigments:
 Orbital symmetries:
 Alpha Orbitals:
       Occupied  (A') (A') (A') (A') (A') (A") (A') (A') (A")
       Virtual   (A') (A') (A") (A') (A') (A") (A') (A') (A') (A")
                 (A') (A') (A') (A') (A") (A') (A') (A") (A") (A')
                 (A') (A") (A") (A') (A') (A') (A') (A') (A") (A')
                 (A") (A') (A') (A') (A') (A") (A") (A') (A') (A')
                 (A') (A") (A") (A") (A') (A') (A') (A') (A") (A')
                 (A') (A") (A') (A') (A") (A') (A") (A') (A') (A")
                 (A') (A") (A') (A") (A') (A') (A') (A') (A') (A")
                 (A") (A') (A") (A') (A") (A") (A') (A') (A') (A")
                 (A') (A') (A') (A") (A') (A') (A") (A') (A") (A')
                 (A') (A") (A') (A") (A') (A') (A') (A") (A') (A')
                 (A") (A") (A') (A') (A') (A") (A") (A') (A") (A')
                 (A') (A") (A') (A") (A') (A') (A") (A') (A') (A")
                 (A') (A") (A') (A") (A") (A') (A") (A') (A') (A')
                 (A") (A') (A") (A') (A") (A") (A') (A') (A') (A")
                 (A") (A') (A') (A') (A") (A') (A') (A") (A') (A')
                 (A') (A') (A') (A') (A') (A')
 Beta  Orbitals:
       Occupied  (A') (A') (A') (A') (A') (A') (A") (A')
       Virtual   (A") (A') (A') (A") (A') (A') (A') (A") (A') (A")
                 (A') (A') (A') (A') (A') (A") (A') (A") (A') (A')
                 (A') (A") (A") (A") (A') (A') (A') (A') (A') (A")
                 (A') (A") (A') (A') (A') (A') (A") (A") (A') (A')
                 (A') (A') (A") (A") (A") (A') (A') (A') (A') (A")
                 (A') (A') (A") (A') (A') (A") (A') (A") (A') (A')
                 (A") (A') (A") (A') (A") (A') (A') (A') (A') (A')
                 (A") (A") (A') (A") (A') (A") (A") (A') (A') (A')
                 (A") (A') (A') (A') (A") (A') (A') (A") (A') (A")
                 (A') (A') (A") (A') (A") (A') (A') (A') (A") (A')
                 (A') (A") (A") (A') (A') (A') (A") (A") (A') (A")
                 (A') (A') (A") (A") (A') (A') (A') (A") (A') (A')
                 (A") (A') (A") (A') (A") (A") (A") (A') (A') (A')
                 (A') (A") (A') (A") (A') (A") (A") (A') (A') (A')
                 (A') (A") (A") (A') (A') (A") (A') (A') (A") (A')
                 (A') (A') (A') (A') (A') (A') (A')
    12 initial guesses have been made.
 Convergence on wavefunction:    0.001000000000000
 Davidson Disk Diagonalization:  ConvIn= 1.00D-03 SkipCon=T Conv= 1.00D-03.
 Max sub-space:  2000 roots to seek:    12 dimension of matrix:         2660
 Iteration     1 Dimension    12 NMult     0 NNew     12
 Estimated number of processors is:   19
 CISAX will form     1 AO SS matrices at one time.
 NMat=     1 NSing=     1 JSym2X= 2.
 FoFJK:  IHMeth= 1 ICntrl=       0 DoSepK=F KAlg= 0 I1Cent=           0 FoldK=F
 IRaf= 990000000 NMat=       1 IRICut=       1 DoRegI=T DoRafI=F ISym2E= 2 IDoP0=0 IntGTp=1.
 FoFCou: FMM=F IPFlag=           0 FMFlag=      100000 FMFlg1=           0
         NFxFlg=           0 DoJE=F BraDBF=F KetDBF=F FulRan=T
         wScrn=  0.000000 ICntrl=         0 IOpCl=  1 I1Cent=           0 NGrid=           0
         NMat0=    1 NMatS0=      1 NMatT0=    0 NMatD0=    1 NMtDS0=    0 NMtDT0=    0
 Integrals replicated using symmetry in FoFCou.
 CoulSu:  requested number of processors reduced to:  20 ShMem   1 Linda.
 NMat=     1 NSing=     1 JSym2X= 2.
 CoulSu:  requested number of processors reduced to:  20 ShMem   1 Linda.
 NMat=     1 NSing=     1 JSym2X= 2.
 CoulSu:  requested number of processors reduced to:  20 ShMem   1 Linda.
 NMat=     1 NSing=     1 JSym2X= 2.
 CoulSu:  requested number of processors reduced to:  20 ShMem   1 Linda.
 NMat=     1 NSing=     1 JSym2X= 2.
 CoulSu:  requested number of processors reduced to:  20 ShMem   1 Linda.
 NMat=     1 NSing=     1 JSym2X= 2.
 CoulSu:  requested number of processors reduced to:  20 ShMem   1 Linda.
 NMat=     1 NSing=     1 JSym2X= 2.
 CoulSu:  requested number of processors reduced to:  20 ShMem   1 Linda.
 NMat=     1 NSing=     1 JSym2X= 2.
 CoulSu:  requested number of processors reduced to:  20 ShMem   1 Linda.
 NMat=     1 NSing=     1 JSym2X= 2.
 CoulSu:  requested number of processors reduced to:  20 ShMem   1 Linda.
 NMat=     1 NSing=     1 JSym2X= 2.
 CoulSu:  requested number of processors reduced to:  20 ShMem   1 Linda.
 NMat=     1 NSing=     1 JSym2X= 2.
 CoulSu:  requested number of processors reduced to:  20 ShMem   1 Linda.
 NMat=     1 NSing=     1 JSym2X= 2.
 CoulSu:  requested number of processors reduced to:  20 ShMem   1 Linda.
 Excitation Energies [eV] at current iteration:
 Root      1 :     1.368854785149880
 Root      2 :     7.529430652244186
 Root      3 :     7.980706105831572
 Root      4 :     8.172778905689519
 Root      5 :     8.582011912700247
 Root      6 :     8.797243779986177
 Root      7 :     9.171233891596911
 Root      8 :     9.327298007519451
 Root      9 :     9.329445876642165
 Root     10 :     9.444497847535660
 Root     11 :     9.820347297773615
 Root     12 :    11.278334092360730
 Iteration     2 Dimension    24 NMult    12 NNew     12
 Estimated number of processors is:   19
 CISAX will form     1 AO SS matrices at one time.
 NMat=     1 NSing=     1 JSym2X= 2.
 CoulSu:  requested number of processors reduced to:  20 ShMem   1 Linda.
 NMat=     1 NSing=     1 JSym2X= 2.
 CoulSu:  requested number of processors reduced to:  20 ShMem   1 Linda.
 NMat=     1 NSing=     1 JSym2X= 2.
 CoulSu:  requested number of processors reduced to:  20 ShMem   1 Linda.
 NMat=     1 NSing=     1 JSym2X= 2.
 CoulSu:  requested number of processors reduced to:  20 ShMem   1 Linda.
 NMat=     1 NSing=     1 JSym2X= 2.
 CoulSu:  requested number of processors reduced to:  20 ShMem   1 Linda.
 NMat=     1 NSing=     1 JSym2X= 2.
 CoulSu:  requested number of processors reduced to:  20 ShMem   1 Linda.
 NMat=     1 NSing=     1 JSym2X= 2.
 CoulSu:  requested number of processors reduced to:  20 ShMem   1 Linda.
 NMat=     1 NSing=     1 JSym2X= 2.
 CoulSu:  requested number of processors reduced to:  20 ShMem   1 Linda.
 NMat=     1 NSing=     1 JSym2X= 2.
 CoulSu:  requested number of processors reduced to:  20 ShMem   1 Linda.
 NMat=     1 NSing=     1 JSym2X= 2.
 CoulSu:  requested number of processors reduced to:  20 ShMem   1 Linda.
 NMat=     1 NSing=     1 JSym2X= 2.
 CoulSu:  requested number of processors reduced to:  20 ShMem   1 Linda.
 NMat=     1 NSing=     1 JSym2X= 2.
 CoulSu:  requested number of processors reduced to:  20 ShMem   1 Linda.
 Root      1 not converged, maximum delta is    0.095984416794629
 Excitation Energies [eV] at current iteration:
 Root      1 :     0.931773024996682   Change is   -0.437081760153198
 Root      2 :     5.213542423944125   Change is   -3.583701356042052
 Root      3 :     6.783807321103643   Change is   -0.745623331140544
 Root      4 :     7.399128470748125   Change is   -0.581577635083448
 Root      5 :     7.521337695071185   Change is   -1.060674217629064
 Root      6 :     7.982229773738917   Change is   -0.190549131950602
 Root      7 :     8.356397232381847   Change is   -0.973048644260318
 Root      8 :     8.740621535332643   Change is   -0.586676472186807
 Root      9 :     9.053215064772195   Change is   -0.118018826824716
 Root     10 :     9.164064632545999   Change is   -0.280433214989659
 Root     11 :     9.695126187089594   Change is   -0.125221110684022
 Root     12 :     9.780540424019426   Change is   -1.497793668341300
 Iteration     3 Dimension    27 NMult    24 NNew      3
 Estimated number of processors is:   19
 CISAX will form     1 AO SS matrices at one time.
 NMat=     1 NSing=     1 JSym2X= 2.
 CoulSu:  requested number of processors reduced to:  20 ShMem   1 Linda.
 NMat=     1 NSing=     1 JSym2X= 2.
 CoulSu:  requested number of processors reduced to:  20 ShMem   1 Linda.
 NMat=     1 NSing=     1 JSym2X= 2.
 CoulSu:  requested number of processors reduced to:  20 ShMem   1 Linda.
 Root      1 not converged, maximum delta is    0.011784662095241
 Excitation Energies [eV] at current iteration:
 Root      1 :     0.917820336498583   Change is   -0.013952688498099
 Root      2 :     4.943832732997394   Change is   -0.269709690946731
 Root      3 :     6.504904447735844   Change is   -0.278902873367798
 Iteration     4 Dimension    30 NMult    27 NNew      3
 Estimated number of processors is:   19
 CISAX will form     1 AO SS matrices at one time.
 NMat=     1 NSing=     1 JSym2X= 2.
 CoulSu:  requested number of processors reduced to:  20 ShMem   1 Linda.
 NMat=     1 NSing=     1 JSym2X= 2.
 CoulSu:  requested number of processors reduced to:  20 ShMem   1 Linda.
 NMat=     1 NSing=     1 JSym2X= 2.
 CoulSu:  requested number of processors reduced to:  20 ShMem   1 Linda.
 Root      1 not converged, maximum delta is    0.004992932805949
 Excitation Energies [eV] at current iteration:
 Root      1 :     0.916782343487422   Change is   -0.001037993011161
 Root      2 :     4.926521689855275   Change is   -0.017311043142118
 Root      3 :     6.458472771234316   Change is   -0.046431676501528
 Iteration     5 Dimension    33 NMult    30 NNew      3
 Estimated number of processors is:   19
 CISAX will form     1 AO SS matrices at one time.
 NMat=     1 NSing=     1 JSym2X= 2.
 CoulSu:  requested number of processors reduced to:  20 ShMem   1 Linda.
 NMat=     1 NSing=     1 JSym2X= 2.
 CoulSu:  requested number of processors reduced to:  20 ShMem   1 Linda.
 NMat=     1 NSing=     1 JSym2X= 2.
 CoulSu:  requested number of processors reduced to:  20 ShMem   1 Linda.
 Root      1 not converged, maximum delta is    0.002299272657453
 Excitation Energies [eV] at current iteration:
 Root      1 :     0.916664365449980   Change is   -0.000117978037442
 Root      2 :     4.923122046619211   Change is   -0.003399643236065
 Root      3 :     6.451554661017341   Change is   -0.006918110216975
 Iteration     6 Dimension    36 NMult    33 NNew      3
 Estimated number of processors is:   19
 CISAX will form     1 AO SS matrices at one time.
 NMat=     1 NSing=     1 JSym2X= 2.
 CoulSu:  requested number of processors reduced to:  20 ShMem   1 Linda.
 NMat=     1 NSing=     1 JSym2X= 2.
 CoulSu:  requested number of processors reduced to:  20 ShMem   1 Linda.
 NMat=     1 NSing=     1 JSym2X= 2.
 CoulSu:  requested number of processors reduced to:  20 ShMem   1 Linda.
 Root      1 has converged.
 Excitation Energies [eV] at current iteration:
 Root      1 :     0.916656280320411   Change is   -0.000008085129569
 Root      2 :     4.922418073840935   Change is   -0.000703972778276
 Root      3 :     6.450514780428798   Change is   -0.001039880588543
 Convergence achieved on expansion vectors.
 ***********************************************************************
 Stability analysis using <AA,BB:AA,BB> singles matrix:
 ***********************************************************************
 1PDM for each excited state written to RWF  633
 Ground to excited state transition densities written to RWF  633

 Eigenvectors of the stability matrix:
 
 Eigenvector   1:  2.010-A"   Eigenvalue= 0.0336865  <S**2>=0.760
      8B ->  9B        0.98499
 The wavefunction is stable under the perturbations considered.
 Leave Link  914 at Sat Apr 17 13:59:42 2021, MaxMem=   104857600 cpu:            2596.4 elap:              69.6
 (Enter /s/ls4/users/knvvv/bin/g16sse/l508.exe)
 The wavefunction is already stable.
 Leave Link  508 at Sat Apr 17 13:59:42 2021, MaxMem=   104857600 cpu:               2.3 elap:               0.1
 (Enter /s/ls4/users/knvvv/bin/g16sse/l601.exe)
 Copying SCF densities to generalized density rwf, IOpCl= 1 IROHF=0.

 **********************************************************************

            Population analysis using the SCF density.

 **********************************************************************

 Orbital symmetries:
 Alpha Orbitals:
       Occupied  (A') (A') (A') (A') (A') (A") (A') (A') (A")
       Virtual   (A') (A') (A") (A') (A') (A") (A') (A') (A') (A")
                 (A') (A') (A') (A') (A") (A') (A') (A") (A") (A')
                 (A') (A") (A") (A') (A') (A') (A') (A') (A") (A')
                 (A") (A') (A') (A') (A') (A") (A") (A') (A') (A')
                 (A') (A") (A") (A") (A') (A') (A') (A') (A") (A')
                 (A') (A") (A') (A') (A") (A') (A") (A') (A') (A")
                 (A') (A") (A') (A") (A') (A') (A') (A') (A') (A")
                 (A") (A') (A") (A') (A") (A") (A') (A') (A') (A")
                 (A') (A') (A') (A") (A') (A') (A") (A') (A") (A')
                 (A') (A") (A') (A") (A') (A') (A') (A") (A') (A')
                 (A") (A") (A') (A') (A') (A") (A") (A') (A") (A')
                 (A') (A") (A') (A") (A') (A') (A") (A') (A') (A")
                 (A') (A") (A') (A") (A") (A') (A") (A') (A') (A')
                 (A") (A') (A") (A') (A") (A") (A') (A') (A') (A")
                 (A") (A') (A') (A') (A") (A') (A') (A") (A') (A')
                 (A') (A') (A') (A') (A') (A')
 Beta  Orbitals:
       Occupied  (A') (A') (A') (A') (A') (A') (A") (A')
       Virtual   (A") (A') (A') (A") (A') (A') (A') (A") (A') (A")
                 (A') (A') (A') (A') (A') (A") (A') (A") (A') (A')
                 (A') (A") (A") (A") (A') (A') (A') (A') (A') (A")
                 (A') (A") (A') (A') (A') (A') (A") (A") (A') (A')
                 (A') (A') (A") (A") (A") (A') (A') (A') (A') (A")
                 (A') (A') (A") (A') (A') (A") (A') (A") (A') (A')
                 (A") (A') (A") (A') (A") (A') (A') (A') (A') (A')
                 (A") (A") (A') (A") (A') (A") (A") (A') (A') (A')
                 (A") (A') (A') (A') (A") (A') (A') (A") (A') (A")
                 (A') (A') (A") (A') (A") (A') (A') (A') (A") (A')
                 (A') (A") (A") (A') (A') (A') (A") (A") (A') (A")
                 (A') (A') (A") (A") (A') (A') (A') (A") (A') (A')
                 (A") (A') (A") (A') (A") (A") (A") (A') (A') (A')
                 (A') (A") (A') (A") (A') (A") (A") (A') (A') (A')
                 (A') (A") (A") (A') (A') (A") (A') (A') (A") (A')
                 (A') (A') (A') (A') (A') (A') (A')
 The electronic state is 2-A".
 Alpha  occ. eigenvalues --  -19.75730 -19.72373  -1.33858  -1.00017  -0.65972
 Alpha  occ. eigenvalues --   -0.59902  -0.57584  -0.39891  -0.39833
 Alpha virt. eigenvalues --    0.00335   0.03753   0.05473   0.06047   0.09094
 Alpha virt. eigenvalues --    0.09780   0.09841   0.14215   0.16332   0.16533
 Alpha virt. eigenvalues --    0.22119   0.23703   0.24602   0.33770   0.36396
 Alpha virt. eigenvalues --    0.36600   0.41114   0.41419   0.42472   0.43283
 Alpha virt. eigenvalues --    0.43480   0.44290   0.47453   0.49519   0.51371
 Alpha virt. eigenvalues --    0.56190   0.59833   0.61881   0.63384   0.67839
 Alpha virt. eigenvalues --    0.77411   0.86219   0.91287   1.04211   1.11947
 Alpha virt. eigenvalues --    1.18060   1.24431   1.26337   1.29688   1.32244
 Alpha virt. eigenvalues --    1.42302   1.43351   1.48028   1.48649   1.51920
 Alpha virt. eigenvalues --    1.56302   1.59442   1.80153   1.86749   1.91117
 Alpha virt. eigenvalues --    1.97987   2.04806   2.11614   2.31394   2.40017
 Alpha virt. eigenvalues --    2.54753   2.58871   2.62859   2.65646   3.02561
 Alpha virt. eigenvalues --    3.05094   3.10676   3.16181   3.17443   3.26218
 Alpha virt. eigenvalues --    3.30224   3.31809   3.52210   3.68797   3.82199
 Alpha virt. eigenvalues --    3.88613   3.98130   3.98186   4.04397   4.08262
 Alpha virt. eigenvalues --    4.10487   4.11423   4.20045   4.29294   4.31638
 Alpha virt. eigenvalues --    4.37231   4.45843   4.65235   4.71428   4.73017
 Alpha virt. eigenvalues --    4.81990   5.06725   5.23267   5.25153   5.39267
 Alpha virt. eigenvalues --    5.47778   5.76902   5.90937   6.41918   6.58125
 Alpha virt. eigenvalues --    6.96827   7.14856   7.16828   7.24223   7.33838
 Alpha virt. eigenvalues --    7.58522   7.60978   7.72906   7.86545   8.24846
 Alpha virt. eigenvalues --    8.29162   8.35083   8.36358   8.40926   8.51132
 Alpha virt. eigenvalues --    8.58715   8.75553   8.75597   8.76372   8.89659
 Alpha virt. eigenvalues --    9.00688   9.54319   9.67086   9.88532   9.94699
 Alpha virt. eigenvalues --   10.26852  10.41985  10.52459  10.71045  10.76455
 Alpha virt. eigenvalues --   10.77546  10.82746  10.97908  11.00771  11.19304
 Alpha virt. eigenvalues --   11.20871  11.22664  11.27688  11.32773  11.42425
 Alpha virt. eigenvalues --   11.53820  11.60099  11.72590  11.89847  11.90561
 Alpha virt. eigenvalues --   11.95691  11.96311  12.01312  12.27236  12.84897
 Alpha virt. eigenvalues --   12.98116  13.43390  13.51526  13.54078  14.00609
 Alpha virt. eigenvalues --   14.45178  16.29837  47.59075  48.12945 250.56643
 Alpha virt. eigenvalues --  251.21171
  Beta  occ. eigenvalues --  -19.75002 -19.70816  -1.30557  -0.95013  -0.64155
  Beta  occ. eigenvalues --   -0.55290  -0.49696  -0.36988
  Beta virt. eigenvalues --   -0.07527   0.00532   0.03880   0.05812   0.06060
  Beta virt. eigenvalues --    0.09231   0.09781   0.10573   0.15022   0.16802
  Beta virt. eigenvalues --    0.16897   0.22272   0.24029   0.25287   0.34095
  Beta virt. eigenvalues --    0.36419   0.36814   0.40834   0.41287   0.42872
  Beta virt. eigenvalues --    0.43513   0.43646   0.43865   0.47595   0.49735
  Beta virt. eigenvalues --    0.51665   0.56309   0.60085   0.62382   0.63210
  Beta virt. eigenvalues --    0.67300   0.77746   0.85993   0.92127   1.04572
  Beta virt. eigenvalues --    1.12327   1.19784   1.25969   1.26738   1.30639
  Beta virt. eigenvalues --    1.33348   1.42616   1.44866   1.50501   1.51638
  Beta virt. eigenvalues --    1.52579   1.56694   1.60479   1.80338   1.88223
  Beta virt. eigenvalues --    1.91580   1.98138   2.04923   2.11453   2.31781
  Beta virt. eigenvalues --    2.40204   2.55157   2.59179   2.63221   2.65973
  Beta virt. eigenvalues --    3.03074   3.05859   3.12197   3.17113   3.18446
  Beta virt. eigenvalues --    3.26995   3.31069   3.31559   3.52759   3.70255
  Beta virt. eigenvalues --    3.83077   3.89642   3.99158   4.01337   4.04653
  Beta virt. eigenvalues --    4.09404   4.11124   4.11751   4.22194   4.29718
  Beta virt. eigenvalues --    4.32332   4.37138   4.46308   4.65528   4.72097
  Beta virt. eigenvalues --    4.74103   4.81731   5.11747   5.23946   5.28876
  Beta virt. eigenvalues --    5.39412   5.48345   5.77151   5.90882   6.42224
  Beta virt. eigenvalues --    6.58249   6.97245   7.15243   7.17563   7.24569
  Beta virt. eigenvalues --    7.34299   7.59312   7.61055   7.73123   7.86803
  Beta virt. eigenvalues --    8.25157   8.31003   8.36475   8.37652   8.42056
  Beta virt. eigenvalues --    8.52901   8.60114   8.78861   8.80058   8.81512
  Beta virt. eigenvalues --    8.90665   9.00012   9.55640   9.67154   9.89404
  Beta virt. eigenvalues --    9.95352  10.27632  10.43849  10.53067  10.72586
  Beta virt. eigenvalues --   10.87390  10.87941  10.91543  10.99497  11.03973
  Beta virt. eigenvalues --   11.21666  11.25459  11.25672  11.31585  11.34756
  Beta virt. eigenvalues --   11.48391  11.57546  11.59807  11.71796  11.90567
  Beta virt. eigenvalues --   12.01630  12.01795  12.03041  12.12116  12.28997
  Beta virt. eigenvalues --   12.92103  12.98310  13.43451  13.54042  13.62127
  Beta virt. eigenvalues --   14.03771  14.46956  16.29623  47.65388  48.13637
  Beta virt. eigenvalues --  250.55212 251.19275
          Condensed to atoms (all electrons):
               1          2          3
     1  O    8.246275  -0.045086  -0.033840
     2  O   -0.045086   8.033565   0.255517
     3  H   -0.033840   0.255517   0.366977
          Atomic-Atomic Spin Densities.
               1          2          3
     1  O    0.891527  -0.112402  -0.010965
     2  O   -0.112402   0.350432   0.005487
     3  H   -0.010965   0.005487  -0.006198
 Mulliken charges and spin densities:
               1          2
     1  O   -0.167350   0.768160
     2  O   -0.243996   0.243516
     3  H    0.411346  -0.011676
 Sum of Mulliken charges =  -0.00000   1.00000
 Mulliken charges and spin densities with hydrogens summed into heavy atoms:
               1          2
     1  O   -0.167350   0.768160
     2  O    0.167350   0.231840
 Electronic spatial extent (au):  <R**2>=             54.8248
 Charge=             -0.0000 electrons
 Dipole moment (field-independent basis, Debye):
    X=             -1.6975    Y=             -1.3538    Z=              0.0000  Tot=              2.1713
 Quadrupole moment (field-independent basis, Debye-Ang):
   XX=             -9.9423   YY=            -11.0194   ZZ=            -11.0890
   XY=              1.6745   XZ=              0.0000   YZ=              0.0000
 Traceless Quadrupole moment (field-independent basis, Debye-Ang):
   XX=              0.7413   YY=             -0.3358   ZZ=             -0.4054
   XY=              1.6745   XZ=              0.0000   YZ=              0.0000
 Octapole moment (field-independent basis, Debye-Ang**2):
  XXX=             -2.1662  YYY=             -1.5765  ZZZ=              0.0000  XYY=             -1.6412
  XXY=             -2.0725  XXZ=              0.0000  XZZ=             -0.1493  YZZ=              0.1062
  YYZ=              0.0000  XYZ=              0.0000
 Hexadecapole moment (field-independent basis, Debye-Ang**3):
 XXXX=             -9.6398 YYYY=            -37.2864 ZZZZ=             -8.6275 XXXY=              0.3530
 XXXZ=              0.0000 YYYX=              0.5190 YYYZ=              0.0000 ZZZX=              0.0000
 ZZZY=              0.0000 XXYY=             -7.8706 XXZZ=             -3.3193 YYZZ=             -8.0914
 XXYZ=              0.0000 YYXZ=              0.0000 ZZXY=             -0.2893
 N-N= 3.213608862982D+01 E-N=-4.214074428644D+02  KE= 1.504305240302D+02
                          Isotropic Fermi Contact Couplings
        Atom                 a.u.       MegaHertz       Gauss      10(-4) cm-1
     1  O(17)              0.12206     -73.99236     -26.40231     -24.68119
     2  O(17)              0.04353     -26.39044      -9.41676      -8.80290
     3  H(1)              -0.00649     -29.01539     -10.35341      -9.67849
 PrsmSu:  requested number of processors reduced to:  21 ShMem   1 Linda.
 --------------------------------------------------------
       Center         ----  Spin Dipole Couplings  ----
                      3XX-RR        3YY-RR        3ZZ-RR
 --------------------------------------------------------
     1   Atom       -1.667655     -1.691197      3.358852
     2   Atom       -0.702438     -0.809262      1.511700
     3   Atom        0.047440     -0.021804     -0.025636
 --------------------------------------------------------
                        XY            XZ            YZ
 --------------------------------------------------------
     1   Atom       -0.010028      0.000000      0.000000
     2   Atom        0.028378      0.000000      0.000000
     3   Atom        0.038417      0.000000      0.000000
 --------------------------------------------------------


 ---------------------------------------------------------------------------------
              Anisotropic Spin Dipole Couplings in Principal Axis System
 ---------------------------------------------------------------------------------

       Atom             a.u.   MegaHertz   Gauss  10(-4) cm-1        Axes

              Baa    -1.6949   122.641    43.761    40.909  0.3455  0.9384  0.0000
     1 O(17)  Bbb    -1.6640   120.403    42.963    40.162  0.9384 -0.3455 -0.0000
              Bcc     3.3589  -243.044   -86.724   -81.071  0.0000  0.0000  1.0000
 
              Baa    -0.8163    59.069    21.077    19.703 -0.2418  0.9703  0.0000
     2 O(17)  Bbb    -0.6954    50.316    17.954    16.784  0.9703  0.2418  0.0000
              Bcc     1.5117  -109.386   -39.031   -36.487  0.0000  0.0000  1.0000
 
              Baa    -0.0389   -20.754    -7.406    -6.923 -0.4065  0.9136 -0.0000
     3 H(1)   Bbb    -0.0256   -13.678    -4.881    -4.563  0.0000  0.0000  1.0000
              Bcc     0.0645    34.432    12.286    11.485  0.9136  0.4065  0.0000
 

 ---------------------------------------------------------------------------------

 PrsmSu:  requested number of processors reduced to:  21 ShMem   1 Linda.
 No NMR shielding tensors so no spin-rotation constants.
 Leave Link  601 at Sat Apr 17 13:59:46 2021, MaxMem=   104857600 cpu:             164.7 elap:               3.7
 (Enter /s/ls4/users/knvvv/bin/g16sse/l9999.exe)

 Test job not archived.
 1\1\GINC-N156\Stability\UM062X\Gen\H1O2(2)\KNVVV\17-Apr-2021\0\\#P M06
 2X/GEN Integral=UltraFineGrid SCF=NoSymm Stable=(RExt, Opt) IOp(1/33=1
 )\\Database calculations.\\0,2\O,0,0.,0.,0.\O,0,0.,0.,1.33027567\H,0,0
 .940587932,0.,1.5687674233\\Version=ES64L-G16RevA.03\State=2-A"\HF=-15
 0.9203375\S2=0.755373\S2-1=0.\S2A=0.750017\RMSD=4.745e-09\Dipole=0.667
 8528,0.,0.5326371\Quadrupole=0.5511148,-0.301441,-0.2496738,0.,1.24491
 55,0.\PG=CS [SG(H1O2)]\\@


 A MUSTACHE HAIR ACROSS A CHIP IS LIKE A REDWOOD
 TREE FALLING THROUGH A HOUSING PROJECT.
 - AN IBM MANAGER IN EAST FISHKILL, NEW YORK
   AS QUOTED IN "FROM SANDS TO CIRCUITS", IBM INNOVATION JANUARY 1985.
 Job cpu time:       0 days  2 hours 29 minutes  5.9 seconds.
 Elapsed time:       0 days  0 hours  3 minutes 30.9 seconds.
 File lengths (MBytes):  RWF=     99 Int=      0 D2E=      0 Chk=      5 Scr=      1
 Normal termination of Gaussian 16 at Sat Apr 17 13:59:46 2021.
