 Entering Gaussian System, Link 0=/s/ls4/users/knvvv/bin/g16sse/g16
 Input=data/database/M062X--def2-QZVPPD--17_ch4_BSR36.gjf
 Output=data/database/M062X--def2-QZVPPD--17_ch4_BSR36.log
 Initial command:
 /s/ls4/users/knvvv/bin/g16sse/l1.exe "/s/ls4/users/knvvv/bin/scratch/Gau-46670.inp" -scrdir="/s/ls4/users/knvvv/bin/scratch/"
 Entering Link 1 = /s/ls4/users/knvvv/bin/g16sse/l1.exe PID=     46671.
  
 Copyright (c) 1988,1990,1992,1993,1995,1998,2003,2009,2016,
            Gaussian, Inc.  All Rights Reserved.
  
 This is part of the Gaussian(R) 16 program.  It is based on
 the Gaussian(R) 09 system (copyright 2009, Gaussian, Inc.),
 the Gaussian(R) 03 system (copyright 2003, Gaussian, Inc.),
 the Gaussian(R) 98 system (copyright 1998, Gaussian, Inc.),
 the Gaussian(R) 94 system (copyright 1995, Gaussian, Inc.),
 the Gaussian 92(TM) system (copyright 1992, Gaussian, Inc.),
 the Gaussian 90(TM) system (copyright 1990, Gaussian, Inc.),
 the Gaussian 88(TM) system (copyright 1988, Gaussian, Inc.),
 the Gaussian 86(TM) system (copyright 1986, Carnegie Mellon
 University), and the Gaussian 82(TM) system (copyright 1983,
 Carnegie Mellon University). Gaussian is a federally registered
 trademark of Gaussian, Inc.
  
 This software contains proprietary and confidential information,
 including trade secrets, belonging to Gaussian, Inc.
  
 This software is provided under written license and may be
 used, copied, transmitted, or stored only in accord with that
 written license.
  
 The following legend is applicable only to US Government
 contracts under FAR:
  
                    RESTRICTED RIGHTS LEGEND
  
 Use, reproduction and disclosure by the US Government is
 subject to restrictions as set forth in subparagraphs (a)
 and (c) of the Commercial Computer Software - Restricted
 Rights clause in FAR 52.227-19.
  
 Gaussian, Inc.
 340 Quinnipiac St., Bldg. 40, Wallingford CT 06492
  
  
 ---------------------------------------------------------------
 Warning -- This program may not be used in any manner that
 competes with the business of Gaussian, Inc. or will provide
 assistance to any competitor of Gaussian, Inc.  The licensee
 of this program is prohibited from giving any competitor of
 Gaussian, Inc. access to this program.  By using this program,
 the user acknowledges that Gaussian, Inc. is engaged in the
 business of creating and licensing software in the field of
 computational chemistry and represents and warrants to the
 licensee that it is not a competitor of Gaussian, Inc. and that
 it will not use this program in any manner prohibited above.
 ---------------------------------------------------------------
  

 Cite this work as:
 Gaussian 16, Revision A.03,
 M. J. Frisch, G. W. Trucks, H. B. Schlegel, G. E. Scuseria, 
 M. A. Robb, J. R. Cheeseman, G. Scalmani, V. Barone, 
 G. A. Petersson, H. Nakatsuji, X. Li, M. Caricato, A. V. Marenich, 
 J. Bloino, B. G. Janesko, R. Gomperts, B. Mennucci, H. P. Hratchian, 
 J. V. Ortiz, A. F. Izmaylov, J. L. Sonnenberg, D. Williams-Young, 
 F. Ding, F. Lipparini, F. Egidi, J. Goings, B. Peng, A. Petrone, 
 T. Henderson, D. Ranasinghe, V. G. Zakrzewski, J. Gao, N. Rega, 
 G. Zheng, W. Liang, M. Hada, M. Ehara, K. Toyota, R. Fukuda, 
 J. Hasegawa, M. Ishida, T. Nakajima, Y. Honda, O. Kitao, H. Nakai, 
 T. Vreven, K. Throssell, J. A. Montgomery, Jr., J. E. Peralta, 
 F. Ogliaro, M. J. Bearpark, J. J. Heyd, E. N. Brothers, K. N. Kudin, 
 V. N. Staroverov, T. A. Keith, R. Kobayashi, J. Normand, 
 K. Raghavachari, A. P. Rendell, J. C. Burant, S. S. Iyengar, 
 J. Tomasi, M. Cossi, J. M. Millam, M. Klene, C. Adamo, R. Cammi, 
 J. W. Ochterski, R. L. Martin, K. Morokuma, O. Farkas, 
 J. B. Foresman, and D. J. Fox, Gaussian, Inc., Wallingford CT, 2016.
 
 ******************************************
 Gaussian 16:  ES64L-G16RevA.03 25-Dec-2016
                17-Apr-2021 
 ******************************************
 %RWF=temp2_49762,70GB
 %nprocshared=48
 Will use up to   48 processors via shared memory.
 Default route: MaxDisk=80GB
 ----------------------------------------------------------------------
 #P M062X/GEN Integral=UltraFineGrid SCF=NoSymm Stable=(RExt, Opt) IOp(
 1/33=1)
 ----------------------------------------------------------------------
 1/33=1,38=1,172=1/1;
 2/12=2,17=6,18=5,40=1/2;
 3/5=7,11=2,25=1,30=1,74=-55,75=-5/1,2,3;
 4/9=2/1;
 5/5=2,38=5/2;
 6/7=2,8=2,9=2,10=2,28=1/1;
 8/6=1,10=90,11=11/1;
 9/8=-3,42=1,46=1/14;
 5/5=2,8=3,17=40,38=5/8(-2);
 6/7=2,8=2,9=2,10=2,28=1/1;
 99/5=1,9=1/99;
 Leave Link    1 at Sat Apr 17 19:01:43 2021, MaxMem=           0 cpu:               7.5 elap:               0.2
 (Enter /s/ls4/users/knvvv/bin/g16sse/l101.exe)
 ONIOM data not found on unit 2.
 ----------------------
 Database calculations.
 ----------------------
 TstMul:  ICh=     0
 TstMul:  Mul=     1
 TstMul:  ICh=     0
 TstMul:  Mul=     1
 Symbolic Z-matrix:
 Charge =  0 Multiplicity = 1
 C                     0.        0.        0. 
 H                     0.62664  -0.62664   0.62664 
 H                    -0.62664   0.62664   0.62664 
 H                    -0.62664  -0.62664  -0.62664 
 H                     0.62664   0.62664  -0.62664 
 
 RdStrC is calling ZToCFu for IStruc=1 NZ=     5.
 PrtBox:  NBox=     1 Levels=  1 BoxLen=    8.00 SMaxX=        2.37
          Shift=            1.184169            1.184169            1.184169
 Box      1 Number                   0 centers from      1 to      5:
 After GenITR:
 ITRead=  0  0  0  0  0
 MicOpt= -1 -1 -1 -1 -1
 ITRead=  0  0  0  0  0
 MicOpt= -1 -1 -1 -1 -1
 NAtoms=      5 NQM=        5 NQMF=       0 NMMI=      0 NMMIF=      0
                NMic=       0 NMicF=      0.
                    Isotopes and Nuclear Properties:
 (Nuclear quadrupole moments (NQMom) in fm**2, nuclear magnetic moments (NMagM)
  in nuclear magnetons)

  Atom         1           2           3           4           5
 IAtWgt=          12           1           1           1           1
 AtmWgt=  12.0000000   1.0078250   1.0078250   1.0078250   1.0078250
 NucSpn=           0           1           1           1           1
 AtZEff=  -0.0000000  -0.0000000  -0.0000000  -0.0000000  -0.0000000
 NQMom=    0.0000000   0.0000000   0.0000000   0.0000000   0.0000000
 NMagM=    0.0000000   2.7928460   2.7928460   2.7928460   2.7928460
 AtZNuc=   6.0000000   1.0000000   1.0000000   1.0000000   1.0000000
 No MM parameters found.
 Leave Link  101 at Sat Apr 17 19:01:44 2021, MaxMem=   104857600 cpu:               9.0 elap:               0.2
 (Enter /s/ls4/users/knvvv/bin/g16sse/l202.exe)
                          Input orientation:                          
 ---------------------------------------------------------------------
 Center     Atomic      Atomic             Coordinates (Angstroms)
 Number     Number       Type             X           Y           Z
 ---------------------------------------------------------------------
      1          6           0        0.000000    0.000000    0.000000
      2          1           0        0.626635   -0.626635    0.626635
      3          1           0       -0.626635    0.626635    0.626635
      4          1           0       -0.626635   -0.626635   -0.626635
      5          1           0        0.626635    0.626635   -0.626635
 ---------------------------------------------------------------------
                    Distance matrix (angstroms):
                    1          2          3          4          5
     1  C    0.000000
     2  H    1.085364   0.000000
     3  H    1.085364   1.772392   0.000000
     4  H    1.085364   1.772392   1.772392   0.000000
     5  H    1.085364   1.772392   1.772392   1.772392   0.000000
 Stoichiometry    CH4
 Framework group  TD[O(C),4C3(H)]
 Deg. of freedom     1
 Full point group                 TD      NOp  24
 Largest Abelian subgroup         D2      NOp   4
 Largest concise Abelian subgroup D2      NOp   4
                         Standard orientation:                         
 ---------------------------------------------------------------------
 Center     Atomic      Atomic             Coordinates (Angstroms)
 Number     Number       Type             X           Y           Z
 ---------------------------------------------------------------------
      1          6           0        0.000000    0.000000    0.000000
      2          1           0        0.626635    0.626635    0.626635
      3          1           0       -0.626635   -0.626635    0.626635
      4          1           0        0.626635   -0.626635   -0.626635
      5          1           0       -0.626635    0.626635   -0.626635
 ---------------------------------------------------------------------
 Rotational constants (GHZ):         159.6292935         159.6292935         159.6292935
 Leave Link  202 at Sat Apr 17 19:01:44 2021, MaxMem=   104857600 cpu:              25.8 elap:               0.6
 (Enter /s/ls4/users/knvvv/bin/g16sse/l301.exe)
 General basis read from cards:  (5D, 7F)
 Centers:       2      3      4      5
 S 4 1.00
     Exponent=  1.9069169000D+02 Coefficients=  7.0815167000D-04
     Exponent=  2.8605532000D+01 Coefficients=  5.4678827000D-03
     Exponent=  6.5095943000D+00 Coefficients=  2.7966605000D-02
     Exponent=  1.8412455000D+00 Coefficients=  1.0764538000D-01
 S 1 1.00
     Exponent=  5.9853725000D-01 Coefficients=  1.0000000000D+00
 S 1 1.00
     Exponent=  2.1397624000D-01 Coefficients=  1.0000000000D+00
 S 1 1.00
     Exponent=  8.0316286000D-02 Coefficients=  1.0000000000D+00
 P 1 1.00
     Exponent=  2.2920000000D+00 Coefficients=  1.0000000000D+00
 P 1 1.00
     Exponent=  8.3800000000D-01 Coefficients=  1.0000000000D+00
 P 1 1.00
     Exponent=  2.9200000000D-01 Coefficients=  1.0000000000D+00
 P 1 1.00
     Exponent=  8.4063199228D-02 Coefficients=  1.0000000000D+00
 D 1 1.00
     Exponent=  2.0620000000D+00 Coefficients=  1.0000000000D+00
 D 1 1.00
     Exponent=  6.6200000000D-01 Coefficients=  1.0000000000D+00
 F 1 1.00
     Exponent=  1.3970000000D+00 Coefficients=  1.0000000000D+00
 ****
 Centers:       1
 S 8 1.00
     Exponent=  6.7025071029D+04 Coefficients=  3.8736308501D-05
     Exponent=  1.0039986538D+04 Coefficients=  3.0107917575D-04
     Exponent=  2.2849316911D+03 Coefficients=  1.5787918095D-03
     Exponent=  6.4714122130D+02 Coefficients=  6.6087087195D-03
     Exponent=  2.1109472335D+02 Coefficients=  2.3367123250D-02
     Exponent=  7.6177643862D+01 Coefficients=  7.0420716898D-02
     Exponent=  2.9633839163D+01 Coefficients=  1.7360344953D-01
     Exponent=  1.2187785081D+01 Coefficients=  3.2292305648D-01
 S 2 1.00
     Exponent=  5.3026006299D+01 Coefficients=  7.4897404492D-02
     Exponent=  1.5258502776D+01 Coefficients=  7.6136220983D-01
 S 1 1.00
     Exponent=  5.2403957464D+00 Coefficients=  1.0000000000D+00
 S 1 1.00
     Exponent=  2.2905022379D+00 Coefficients=  1.0000000000D+00
 S 1 1.00
     Exponent=  6.9673283006D-01 Coefficients=  1.0000000000D+00
 S 1 1.00
     Exponent=  2.7599337363D-01 Coefficients=  1.0000000000D+00
 S 1 1.00
     Exponent=  1.0739884389D-01 Coefficients=  1.0000000000D+00
 S 1 1.00
     Exponent=  4.4981404899D-02 Coefficients=  1.0000000000D+00
 P 5 1.00
     Exponent=  1.0512555082D+02 Coefficients=  8.4647553844D-04
     Exponent=  2.4884461066D+01 Coefficients=  6.6274038534D-03
     Exponent=  7.8637230826D+00 Coefficients=  3.0120390419D-02
     Exponent=  2.8407001835D+00 Coefficients=  9.9951435476D-02
     Exponent=  1.1227137335D+00 Coefficients=  2.3826299282D-01
 P 1 1.00
     Exponent=  4.6050725555D-01 Coefficients=  1.0000000000D+00
 P 1 1.00
     Exponent=  1.8937530913D-01 Coefficients=  1.0000000000D+00
 P 1 1.00
     Exponent=  7.5983791611D-02 Coefficients=  1.0000000000D+00
 D 1 1.00
     Exponent=  1.8480000000D+00 Coefficients=  1.0000000000D+00
 D 1 1.00
     Exponent=  6.4900000000D-01 Coefficients=  1.0000000000D+00
 D 1 1.00
     Exponent=  2.2800000000D-01 Coefficients=  1.0000000000D+00
 D 1 1.00
     Exponent=  7.6889830417D-02 Coefficients=  1.0000000000D+00
 F 1 1.00
     Exponent=  1.4190000000D+00 Coefficients=  1.0000000000D+00
 F 1 1.00
     Exponent=  4.8500000000D-01 Coefficients=  1.0000000000D+00
 G 1 1.00
     Exponent=  1.0110000000D+00 Coefficients=  1.0000000000D+00
 ****
 Ernie: Thresh=  0.10000D-02 Tol=  0.10000D-05 Strict=F.
 There are    66 symmetry adapted cartesian basis functions of A   symmetry.
 There are    55 symmetry adapted cartesian basis functions of B1  symmetry.
 There are    55 symmetry adapted cartesian basis functions of B2  symmetry.
 There are    55 symmetry adapted cartesian basis functions of B3  symmetry.
 There are    54 symmetry adapted basis functions of A   symmetry.
 There are    47 symmetry adapted basis functions of B1  symmetry.
 There are    47 symmetry adapted basis functions of B2  symmetry.
 There are    47 symmetry adapted basis functions of B3  symmetry.
   195 basis functions,   263 primitive gaussians,   231 cartesian basis functions
     5 alpha electrons        5 beta electrons
       nuclear repulsion energy        13.4927783173 Hartrees.
 IExCor= 4336 DFT=T Ex+Corr=M062X ExCW=0 ScaHFX=  0.540000
 ScaDFX=  1.000000  1.000000  1.000000  1.000000 ScalE2=  1.000000  1.000000
 IRadAn=      5 IRanWt=     -1 IRanGd=            0 ICorTp=0 IEmpDi=  4
 NAtoms=    5 NActive=    5 NUniq=    2 SFac= 4.00D+00 NAtFMM=   60 NAOKFM=F Big=F
 Integral buffers will be    131072 words long.
 Raffenetti 2 integral format.
 Two-electron integral symmetry is turned on.
 Leave Link  301 at Sat Apr 17 19:01:44 2021, MaxMem=   104857600 cpu:               8.2 elap:               0.2
 (Enter /s/ls4/users/knvvv/bin/g16sse/l302.exe)
 NPDir=0 NMtPBC=     1 NCelOv=     1 NCel=       1 NClECP=     1 NCelD=      1
         NCelK=      1 NCelE2=     1 NClLst=     1 CellRange=     0.0.
 One-electron integrals computed using PRISM.
 One-electron integral symmetry used in STVInt
 PrsmSu:  requested number of processors reduced to:   4 ShMem   1 Linda.
 PrsmSu:  requested number of processors reduced to:  21 ShMem   1 Linda.
 NBasis=   195 RedAO= T EigKep=  1.76D-06  NBF=    54    47    47    47
 NBsUse=   195 1.00D-06 EigRej= -1.00D+00 NBFU=    54    47    47    47
 Precomputing XC quadrature grid using
 IXCGrd= 4 IRadAn=           5 IRanWt=          -1 IRanGd=           0 AccXCQ= 0.00D+00.
 Generated NRdTot=       0 NPtTot=           0 NUsed=           0 NTot=          32
 NSgBfM=   231   231   231   231   231 MxSgAt=     5 MxSgA2=     5.
 Leave Link  302 at Sat Apr 17 19:02:21 2021, MaxMem=   104857600 cpu:            1738.0 elap:              37.1
 (Enter /s/ls4/users/knvvv/bin/g16sse/l303.exe)
 DipDrv:  MaxL=1.
 Leave Link  303 at Sat Apr 17 19:02:22 2021, MaxMem=   104857600 cpu:              21.6 elap:               0.5
 (Enter /s/ls4/users/knvvv/bin/g16sse/l401.exe)
 SCF N**3 symmetry information disabled.
 ExpMin= 4.50D-02 ExpMax= 6.70D+04 ExpMxC= 6.47D+02 IAcc=3 IRadAn=         5 AccDes= 0.00D+00
 Harris functional with IExCor= 1009 and IRadAn=       5 diagonalized for initial guess.
 HarFok:  IExCor= 1009 AccDes= 0.00D+00 IRadAn=         5 IDoV= 1 UseB2=F ITyADJ=14
 ICtDFT=  3500011 ScaDFX=  1.000000  1.000000  1.000000  1.000000
 FoFCou: FMM=F IPFlag=           0 FMFlag=      100000 FMFlg1=           0
         NFxFlg=           0 DoJE=T BraDBF=F KetDBF=T FulRan=T
         wScrn=  0.000000 ICntrl=       500 IOpCl=  0 I1Cent=   200000004 NGrid=           0
         NMat0=    1 NMatS0=      1 NMatT0=    0 NMatD0=    1 NMtDS0=    0 NMtDT0=    0
 Petite list used in FoFCou.
 CoulSu:  requested number of processors reduced to:  21 ShMem   1 Linda.
 CoulSu:  requested number of processors reduced to:  21 ShMem   1 Linda.
 CoulSu:  requested number of processors reduced to:  21 ShMem   1 Linda.
 CoulSu:  requested number of processors reduced to:  21 ShMem   1 Linda.
 DSYEVD-2 returned Info=       29007 IAlg= 4 N=   195 NDim=   195 NE2=      537158 trying  DSYEV.
 Harris En= -40.5457763612639    
 JPrj=0 DoOrth=F DoCkMO=F.
 Initial guess orbital symmetries:
       Occupied  (A1) (A1) (T2) (T2) (T2)
       Virtual   (A1) (T2) (T2) (T2) (T2) (T2) (T2) (E) (E) (A1)
                 (A1) (T2) (T2) (T2) (T1) (T1) (T1) (T2) (T2) (T2)
                 (T2) (T2) (T2) (E) (E) (A1) (T2) (T2) (T2) (E)
                 (E) (A1) (T2) (T2) (T2) (T2) (T2) (T2) (T1) (T1)
                 (T1) (T2) (T2) (T2) (A1) (E) (E) (A1) (T2) (T2)
                 (T2) (T2) (T2) (T2) (E) (E) (T2) (T2) (T2) (T1)
                 (T1) (T1) (A1) (T2) (T2) (T2) (T1) (T1) (T1) (E)
                 (E) (A1) (T2) (T2) (T2) (E) (E) (T2) (T2) (T2)
                 (T1) (T1) (T1) (T2) (T2) (T2) (A1) (T1) (T1) (T1)
                 (T2) (T2) (T2) (A1) (T2) (T2) (T2) (E) (E) (T2)
                 (T2) (T2) (E) (E) (T1) (T1) (T1) (A1) (T2) (T2)
                 (T2) (T2) (T2) (T2) (A2) (T1) (T1) (T1) (T1) (T1)
                 (T1) (A1) (T2) (T2) (T2) (A1) (T2) (T2) (T2) (E)
                 (E) (A1) (T1) (T1) (T1) (E) (E) (T2) (T2) (T2)
                 (T2) (T2) (T2) (E) (E) (T1) (T1) (T1) (T2) (T2)
                 (T2) (A1) (T2) (T2) (T2) (A1) (E) (E) (T1) (T1)
                 (T1) (T2) (T2) (T2) (T2) (T2) (T2) (T1) (T1) (T1)
                 (E) (E) (T2) (T2) (T2) (E) (E) (T2) (T2) (T2)
                 (A1) (T1) (T1) (T1) (T2) (T2) (T2) (A1) (A1) (A1)
 The electronic state of the initial guess is 1-A1.
 Leave Link  401 at Sat Apr 17 19:02:46 2021, MaxMem=   104857600 cpu:            1143.9 elap:              24.5
 (Enter /s/ls4/users/knvvv/bin/g16sse/l502.exe)
 Integral symmetry usage will be decided dynamically.
 Closed shell SCF:
 Using DIIS extrapolation, IDIIS=  1040.
 NGot=   104857600 LenX=   104735092 LenY=   104681290
 Requested convergence on RMS density matrix=1.00D-08 within 128 cycles.
 Requested convergence on MAX density matrix=1.00D-06.
 Requested convergence on             energy=1.00D-06.
 No special actions if energy rises.
 Fock matrices will be formed incrementally for  20 cycles.

 Cycle   1  Pass 1  IDiag  1:
 FoFJK:  IHMeth= 1 ICntrl=       0 DoSepK=F KAlg= 0 I1Cent=           0 FoldK=F
 IRaf= 990000000 NMat=       1 IRICut=       1 DoRegI=T DoRafI=F ISym2E= 1 IDoP0=0 IntGTp=1.
 FoFCou: FMM=F IPFlag=           0 FMFlag=      100000 FMFlg1=           0
         NFxFlg=           0 DoJE=F BraDBF=F KetDBF=F FulRan=T
         wScrn=  0.000000 ICntrl=         0 IOpCl=  0 I1Cent=           0 NGrid=           0
         NMat0=    1 NMatS0=      1 NMatT0=    0 NMatD0=    1 NMtDS0=    0 NMtDT0=    0
 Petite list used in FoFCou.
 CoulSu:  requested number of processors reduced to:  21 ShMem   1 Linda.
 E= -40.4058096635262    
 DIIS: error= 4.82D-02 at cycle   1 NSaved=   1.
 NSaved= 1 IEnMin= 1 EnMin= -40.4058096635262     IErMin= 1 ErrMin= 4.82D-02
 ErrMax= 4.82D-02  0.00D+00 EMaxC= 1.00D-01 BMatC= 1.21D-01 BMatP= 1.21D-01
 IDIUse=3 WtCom= 5.18D-01 WtEn= 4.82D-01
 Coeff-Com:  0.100D+01
 Coeff-En:   0.100D+01
 Coeff:      0.100D+01
 Gap=     0.378 Goal=   None    Shift=    0.000
 GapD=    0.378 DampG=1.000 DampE=0.500 DampFc=0.5000 IDamp=-1.
 Damping current iteration by 5.00D-01
 RMSDP=4.96D-03 MaxDP=2.37D-01              OVMax= 1.74D-01

 Cycle   2  Pass 1  IDiag  1:
 RMSU=  1.28D-03    CP:  7.23D-01
 CoulSu:  requested number of processors reduced to:  21 ShMem   1 Linda.
 E= -40.4592989897630     Delta-E=       -0.053489326237 Rises=F Damp=T
 DIIS: error= 1.40D-02 at cycle   2 NSaved=   2.
 NSaved= 2 IEnMin= 2 EnMin= -40.4592989897630     IErMin= 2 ErrMin= 1.40D-02
 ErrMax= 1.40D-02  0.00D+00 EMaxC= 1.00D-01 BMatC= 7.57D-03 BMatP= 1.21D-01
 IDIUse=3 WtCom= 8.60D-01 WtEn= 1.40D-01
 Coeff-Com: -0.125D+00 0.112D+01
 Coeff-En:   0.000D+00 0.100D+01
 Coeff:     -0.107D+00 0.111D+01
 Gap=     0.467 Goal=   None    Shift=    0.000
 RMSDP=5.35D-03 MaxDP=1.30D-01 DE=-5.35D-02 OVMax= 8.01D-02

 Cycle   3  Pass 1  IDiag  1:
 RMSU=  2.85D-03    CP:  1.91D-01  2.51D+00
 CoulSu:  requested number of processors reduced to:  21 ShMem   1 Linda.
 E= -40.5063523817011     Delta-E=       -0.047053391938 Rises=F Damp=F
 DIIS: error= 9.06D-04 at cycle   3 NSaved=   3.
 NSaved= 3 IEnMin= 3 EnMin= -40.5063523817011     IErMin= 3 ErrMin= 9.06D-04
 ErrMax= 9.06D-04  0.00D+00 EMaxC= 1.00D-01 BMatC= 5.47D-05 BMatP= 7.57D-03
 IDIUse=3 WtCom= 9.91D-01 WtEn= 9.06D-03
 Coeff-Com: -0.177D-01 0.537D-01 0.964D+00
 Coeff-En:   0.000D+00 0.000D+00 0.100D+01
 Coeff:     -0.175D-01 0.532D-01 0.964D+00
 Gap=     0.470 Goal=   None    Shift=    0.000
 RMSDP=9.73D-05 MaxDP=5.98D-03 DE=-4.71D-02 OVMax= 2.43D-03

 Cycle   4  Pass 1  IDiag  1:
 RMSU=  6.32D-05    CP:  1.91D-01  2.51D+00  9.74D-01
 CoulSu:  requested number of processors reduced to:  21 ShMem   1 Linda.
 E= -40.5063940901904     Delta-E=       -0.000041708489 Rises=F Damp=F
 DIIS: error= 2.16D-04 at cycle   4 NSaved=   4.
 NSaved= 4 IEnMin= 4 EnMin= -40.5063940901904     IErMin= 4 ErrMin= 2.16D-04
 ErrMax= 2.16D-04  0.00D+00 EMaxC= 1.00D-01 BMatC= 2.18D-06 BMatP= 5.47D-05
 IDIUse=3 WtCom= 9.98D-01 WtEn= 2.16D-03
 Coeff-Com:  0.654D-02-0.142D-01-0.584D-01 0.107D+01
 Coeff-En:   0.000D+00 0.000D+00 0.000D+00 0.100D+01
 Coeff:      0.653D-02-0.142D-01-0.583D-01 0.107D+01
 Gap=     0.470 Goal=   None    Shift=    0.000
 DSYEVD-2 returned Info=         293 IAlg= 4 N=   195 NDim=   195 NE2=      536826 trying  DSYEV.
 RMSDP=1.93D-05 MaxDP=7.73D-04 DE=-4.17D-05 OVMax= 3.47D-04

 Cycle   5  Pass 1  IDiag  1:
 RMSU=  8.27D-06    CP:  1.91D-01  2.50D+00  9.80D-01  1.05D+00
 CoulSu:  requested number of processors reduced to:  21 ShMem   1 Linda.
 E= -40.5063958063283     Delta-E=       -0.000001716138 Rises=F Damp=F
 DIIS: error= 1.20D-05 at cycle   5 NSaved=   5.
 NSaved= 5 IEnMin= 5 EnMin= -40.5063958063283     IErMin= 5 ErrMin= 1.20D-05
 ErrMax= 1.20D-05  0.00D+00 EMaxC= 1.00D-01 BMatC= 7.99D-09 BMatP= 2.18D-06
 IDIUse=1 WtCom= 1.00D+00 WtEn= 0.00D+00
 Coeff-Com:  0.193D-03-0.994D-03 0.416D-03 0.453D-01 0.955D+00
 Coeff:      0.193D-03-0.994D-03 0.416D-03 0.453D-01 0.955D+00
 Gap=     0.470 Goal=   None    Shift=    0.000
 DSYEVD-2 returned Info=         293 IAlg= 4 N=   195 NDim=   195 NE2=      536826 trying  DSYEV.
 RMSDP=8.39D-06 MaxDP=3.72D-04 DE=-1.72D-06 OVMax= 1.98D-05

 Cycle   6  Pass 1  IDiag  1:
 RMSU=  2.11D-06    CP:  1.91D-01  2.50D+00  9.83D-01  1.03D+00  1.23D+00
 CoulSu:  requested number of processors reduced to:  21 ShMem   1 Linda.
 E= -40.5063958099929     Delta-E=       -0.000000003665 Rises=F Damp=F
 DIIS: error= 1.21D-06 at cycle   6 NSaved=   6.
 NSaved= 6 IEnMin= 6 EnMin= -40.5063958099929     IErMin= 6 ErrMin= 1.21D-06
 ErrMax= 1.21D-06  0.00D+00 EMaxC= 1.00D-01 BMatC= 6.87D-11 BMatP= 7.99D-09
 IDIUse=1 WtCom= 1.00D+00 WtEn= 0.00D+00
 Coeff-Com: -0.789D-04 0.168D-03 0.441D-03-0.160D-01-0.508D-01 0.107D+01
 Coeff:     -0.789D-04 0.168D-03 0.441D-03-0.160D-01-0.508D-01 0.107D+01
 Gap=     0.470 Goal=   None    Shift=    0.000
 DSYEVD-2 returned Info=         293 IAlg= 4 N=   195 NDim=   195 NE2=      536826 trying  DSYEV.
 RMSDP=2.74D-07 MaxDP=1.12D-05 DE=-3.66D-09 OVMax= 5.16D-06

 Cycle   7  Pass 1  IDiag  1:
 RMSU=  1.01D-07    CP:  1.91D-01  2.50D+00  9.83D-01  1.04D+00  1.23D+00
                    CP:  9.53D-01
 CoulSu:  requested number of processors reduced to:  21 ShMem   1 Linda.
 E= -40.5063958101338     Delta-E=       -0.000000000141 Rises=F Damp=F
 DIIS: error= 2.21D-07 at cycle   7 NSaved=   7.
 NSaved= 7 IEnMin= 7 EnMin= -40.5063958101338     IErMin= 7 ErrMin= 2.21D-07
 ErrMax= 2.21D-07  0.00D+00 EMaxC= 1.00D-01 BMatC= 3.16D-12 BMatP= 6.87D-11
 IDIUse=1 WtCom= 1.00D+00 WtEn= 0.00D+00
 Coeff-Com: -0.883D-06 0.741D-05-0.218D-05-0.362D-03 0.145D-01-0.169D+00
 Coeff-Com:  0.116D+01
 Coeff:     -0.883D-06 0.741D-05-0.218D-05-0.362D-03 0.145D-01-0.169D+00
 Coeff:      0.116D+01
 Gap=     0.470 Goal=   None    Shift=    0.000
 RMSDP=1.59D-07 MaxDP=6.93D-06 DE=-1.41D-10 OVMax= 7.53D-07

 Cycle   8  Pass 1  IDiag  1:
 RMSU=  1.39D-08    CP:  1.91D-01  2.50D+00  9.83D-01  1.04D+00  1.23D+00
                    CP:  9.26D-01  1.10D+00
 CoulSu:  requested number of processors reduced to:  21 ShMem   1 Linda.
 E= -40.5063958101373     Delta-E=       -0.000000000004 Rises=F Damp=F
 DIIS: error= 1.63D-08 at cycle   8 NSaved=   8.
 NSaved= 8 IEnMin= 8 EnMin= -40.5063958101373     IErMin= 8 ErrMin= 1.63D-08
 ErrMax= 1.63D-08  0.00D+00 EMaxC= 1.00D-01 BMatC= 1.92D-14 BMatP= 3.16D-12
 IDIUse=1 WtCom= 1.00D+00 WtEn= 0.00D+00
 Coeff-Com:  0.852D-07-0.295D-06 0.516D-05 0.226D-04 0.497D-03-0.538D-02
 Coeff-Com: -0.545D-01 0.106D+01
 Coeff:      0.852D-07-0.295D-06 0.516D-05 0.226D-04 0.497D-03-0.538D-02
 Coeff:     -0.545D-01 0.106D+01
 Gap=     0.470 Goal=   None    Shift=    0.000
 RMSDP=1.62D-08 MaxDP=7.14D-07 DE=-3.51D-12 OVMax= 6.17D-08

 Cycle   9  Pass 1  IDiag  1:
 RMSU=  4.73D-10    CP:  1.91D-01  2.50D+00  9.83D-01  1.04D+00  1.23D+00
                    CP:  9.23D-01  1.11D+00  1.09D+00
 CoulSu:  requested number of processors reduced to:  21 ShMem   1 Linda.
 E= -40.5063958101361     Delta-E=        0.000000000001 Rises=F Damp=F
 DIIS: error= 5.07D-10 at cycle   9 NSaved=   9.
 NSaved= 9 IEnMin= 8 EnMin= -40.5063958101373     IErMin= 9 ErrMin= 5.07D-10
 ErrMax= 5.07D-10  0.00D+00 EMaxC= 1.00D-01 BMatC= 2.87D-17 BMatP= 1.92D-14
 IDIUse=1 WtCom= 1.00D+00 WtEn= 0.00D+00
 Coeff-Com: -0.801D-08-0.338D-08 0.191D-06 0.415D-07-0.684D-04 0.650D-03
 Coeff-Com: -0.202D-02-0.337D-01 0.104D+01
 Coeff:     -0.801D-08-0.338D-08 0.191D-06 0.415D-07-0.684D-04 0.650D-03
 Coeff:     -0.202D-02-0.337D-01 0.104D+01
 Gap=     0.470 Goal=   None    Shift=    0.000
 RMSDP=1.05D-09 MaxDP=4.59D-08 DE= 1.26D-12 OVMax= 2.49D-09

 SCF Done:  E(RM062X) =  -40.5063958101     A.U. after    9 cycles
            NFock=  9  Conv=0.11D-08     -V/T= 2.0050
 KE= 4.030474989528D+01 PE=-1.202331881265D+02 EE= 2.592926410385D+01
 Leave Link  502 at Sat Apr 17 19:03:32 2021, MaxMem=   104857600 cpu:            2029.1 elap:              45.7
 (Enter /s/ls4/users/knvvv/bin/g16sse/l601.exe)
 Copying SCF densities to generalized density rwf, IOpCl= 0 IROHF=0.

 **********************************************************************

            Population analysis using the SCF density.

 **********************************************************************

 Orbital symmetries:
       Occupied  (A1) (A1) (T2) (T2) (T2)
       Virtual   (A1) (T2) (T2) (T2) (T2) (T2) (T2) (E) (E) (A1)
                 (A1) (T2) (T2) (T2) (T1) (T1) (T1) (T2) (T2) (T2)
                 (T2) (T2) (T2) (E) (E) (T2) (T2) (T2) (A1) (E)
                 (E) (A1) (T2) (T2) (T2) (T1) (T1) (T1) (T2) (T2)
                 (T2) (T2) (T2) (T2) (A1) (E) (E) (T2) (T2) (T2)
                 (A1) (T2) (T2) (T2) (E) (E) (T1) (T1) (T1) (T2)
                 (T2) (T2) (A1) (T2) (T2) (T2) (T1) (T1) (T1) (E)
                 (E) (A1) (T2) (T2) (T2) (E) (E) (T2) (T2) (T2)
                 (T1) (T1) (T1) (T2) (T2) (T2) (A1) (T2) (T2) (T2)
                 (T1) (T1) (T1) (A1) (T2) (T2) (T2) (E) (E) (T2)
                 (T2) (T2) (E) (E) (T1) (T1) (T1) (A1) (T2) (T2)
                 (T2) (A2) (T2) (T2) (T2) (T1) (T1) (T1) (T1) (T1)
                 (T1) (A1) (T2) (T2) (T2) (A1) (T2) (T2) (T2) (E)
                 (E) (A1) (T1) (T1) (T1) (E) (E) (T2) (T2) (T2)
                 (T2) (T2) (T2) (E) (E) (T1) (T1) (T1) (T2) (T2)
                 (T2) (A1) (A1) (E) (E) (T1) (T1) (T1) (T2) (T2)
                 (T2) (T2) (T2) (T2) (T2) (T2) (T2) (T1) (T1) (T1)
                 (E) (E) (T2) (T2) (T2) (E) (E) (T2) (T2) (T2)
                 (A1) (T1) (T1) (T1) (T2) (T2) (T2) (A1) (A1) (A1)
 The electronic state is 1-A1.
 Alpha  occ. eigenvalues --  -10.51701  -0.78758  -0.45730  -0.45730  -0.45730
 Alpha virt. eigenvalues --    0.01316   0.09836   0.09836   0.09836   0.13748
 Alpha virt. eigenvalues --    0.13748   0.13748   0.16563   0.16563   0.19447
 Alpha virt. eigenvalues --    0.24336   0.25745   0.25745   0.25745   0.26350
 Alpha virt. eigenvalues --    0.26350   0.26350   0.33791   0.33791   0.33791
 Alpha virt. eigenvalues --    0.35558   0.35558   0.35558   0.36881   0.36881
 Alpha virt. eigenvalues --    0.50835   0.50835   0.50835   0.54500   0.58314
 Alpha virt. eigenvalues --    0.58314   0.65419   0.76154   0.76154   0.76154
 Alpha virt. eigenvalues --    0.84983   0.84983   0.84983   0.85793   0.85793
 Alpha virt. eigenvalues --    0.85793   1.07526   1.07526   1.07526   1.14829
 Alpha virt. eigenvalues --    1.21472   1.21472   1.28638   1.28638   1.28638
 Alpha virt. eigenvalues --    1.28895   1.50129   1.50129   1.50129   1.85021
 Alpha virt. eigenvalues --    1.85021   1.92908   1.92908   1.92908   1.94923
 Alpha virt. eigenvalues --    1.94923   1.94923   2.06908   2.19637   2.19637
 Alpha virt. eigenvalues --    2.19637   2.19882   2.19882   2.19882   2.27285
 Alpha virt. eigenvalues --    2.27285   2.54612   2.63135   2.63135   2.63135
 Alpha virt. eigenvalues --    2.66580   2.66580   2.88576   2.88576   2.88576
 Alpha virt. eigenvalues --    2.92406   2.92406   2.92406   3.02578   3.02578
 Alpha virt. eigenvalues --    3.02578   3.03471   3.21407   3.21407   3.21407
 Alpha virt. eigenvalues --    3.21578   3.21578   3.21578   3.43644   3.77028
 Alpha virt. eigenvalues --    3.77028   3.77028   3.87892   3.87892   4.13048
 Alpha virt. eigenvalues --    4.13048   4.13048   5.21129   5.21129   5.33753
 Alpha virt. eigenvalues --    5.33753   5.33753   5.59498   5.62803   5.62803
 Alpha virt. eigenvalues --    5.62803   5.74858   5.81420   5.81420   5.81420
 Alpha virt. eigenvalues --    5.88721   5.88721   5.88721   6.02821   6.02821
 Alpha virt. eigenvalues --    6.02821   6.15603   6.25389   6.25389   6.25389
 Alpha virt. eigenvalues --    6.45110   6.50679   6.50679   6.50679   6.62124
 Alpha virt. eigenvalues --    6.62124   6.84536   7.08212   7.08212   7.08212
 Alpha virt. eigenvalues --    7.14838   7.14838   7.24429   7.24429   7.24429
 Alpha virt. eigenvalues --    7.41381   7.41381   7.41381   7.48814   7.48814
 Alpha virt. eigenvalues --    7.55596   7.55596   7.55596   7.72774   7.72774
 Alpha virt. eigenvalues --    7.72774   7.96313   8.06088   8.13368   8.13368
 Alpha virt. eigenvalues --    8.14838   8.14838   8.14838   8.16503   8.16503
 Alpha virt. eigenvalues --    8.16503   8.25126   8.25126   8.25126   8.58291
 Alpha virt. eigenvalues --    8.58291   8.58291   8.75980   8.75980   8.75980
 Alpha virt. eigenvalues --    9.21645   9.21645   9.58179   9.58179   9.58179
 Alpha virt. eigenvalues --    9.58928   9.58928   9.81796   9.81796   9.81796
 Alpha virt. eigenvalues --    9.93758  10.23934  10.23934  10.23934  11.49610
 Alpha virt. eigenvalues --   11.49610  11.49610  13.55566  29.18848 146.67160
          Condensed to atoms (all electrons):
               1          2          3          4          5
     1  C    5.247955   0.341340   0.341340   0.341340   0.341340
     2  H    0.341340   0.751635  -0.082101  -0.082101  -0.082101
     3  H    0.341340  -0.082101   0.751635  -0.082101  -0.082101
     4  H    0.341340  -0.082101  -0.082101   0.751635  -0.082101
     5  H    0.341340  -0.082101  -0.082101  -0.082101   0.751635
 Mulliken charges:
               1
     1  C   -0.613313
     2  H    0.153328
     3  H    0.153328
     4  H    0.153328
     5  H    0.153328
 Sum of Mulliken charges =  -0.00000
 Mulliken charges with hydrogens summed into heavy atoms:
               1
     1  C   -0.000000
 Electronic spatial extent (au):  <R**2>=             35.6276
 Charge=             -0.0000 electrons
 Dipole moment (field-independent basis, Debye):
    X=             -0.0000    Y=              0.0000    Z=             -0.0000  Tot=              0.0000
 Quadrupole moment (field-independent basis, Debye-Ang):
   XX=             -8.4291   YY=             -8.4291   ZZ=             -8.4291
   XY=             -0.0000   XZ=             -0.0000   YZ=              0.0000
 Traceless Quadrupole moment (field-independent basis, Debye-Ang):
   XX=             -0.0000   YY=              0.0000   ZZ=              0.0000
   XY=             -0.0000   XZ=             -0.0000   YZ=              0.0000
 Octapole moment (field-independent basis, Debye-Ang**2):
  XXX=             -0.0000  YYY=             -0.0000  ZZZ=              0.0000  XYY=             -0.0000
  XXY=             -0.0000  XXZ=             -0.0000  XZZ=             -0.0000  YZZ=             -0.0000
  YYZ=              0.0000  XYZ=              0.7505
 Hexadecapole moment (field-independent basis, Debye-Ang**3):
 XXXX=            -16.9355 YYYY=            -16.9355 ZZZZ=            -16.9355 XXXY=              0.0000
 XXXZ=             -0.0000 YYYX=              0.0000 YYYZ=              0.0000 ZZZX=             -0.0000
 ZZZY=              0.0000 XXYY=             -5.0940 XXZZ=             -5.0940 YYZZ=             -5.0940
 XXYZ=              0.0000 YYXZ=             -0.0000 ZZXY=              0.0000
 N-N= 1.349277831726D+01 E-N=-1.202331881229D+02  KE= 4.030474989528D+01
 PrsmSu:  requested number of processors reduced to:  21 ShMem   1 Linda.
 No NMR shielding tensors so no spin-rotation constants.
 Leave Link  601 at Sat Apr 17 19:03:45 2021, MaxMem=   104857600 cpu:             613.7 elap:              13.2
 (Enter /s/ls4/users/knvvv/bin/g16sse/l801.exe)
 DoSCS=F DFT=T ScalE2(SS,OS)=  1.000000  1.000000
 Range of M.O.s used for correlation:     1   195
 NBasis=   195 NAE=     5 NBE=     5 NFC=     0 NFV=     0
 NROrb=    195 NOA=     5 NOB=     5 NVA=   190 NVB=   190

 **** Warning!!: The largest alpha MO coefficient is  0.25681117D+03

 Leave Link  801 at Sat Apr 17 19:03:45 2021, MaxMem=   104857600 cpu:               4.8 elap:               0.1
 (Enter /s/ls4/users/knvvv/bin/g16sse/l914.exe)
 RHF ground state
 Doing stability rather than CIS.
 Two-electron integrals replicated using symmetry.
 MDV=   104857600 DFT=T DoStab=T Mixed=T DoRPA=F DoScal=F NonHer=F
 Making orbital integer symmetry assigments:
 Orbital symmetries:
       Occupied  (A1) (A1) (T2) (T2) (T2)
       Virtual   (A1) (T2) (T2) (T2) (T2) (T2) (T2) (E) (E) (A1)
                 (A1) (T2) (T2) (T2) (T1) (T1) (T1) (T2) (T2) (T2)
                 (T2) (T2) (T2) (E) (E) (T2) (T2) (T2) (A1) (E)
                 (E) (A1) (T2) (T2) (T2) (T1) (T1) (T1) (T2) (T2)
                 (T2) (T2) (T2) (T2) (A1) (E) (E) (T2) (T2) (T2)
                 (A1) (T2) (T2) (T2) (E) (E) (T1) (T1) (T1) (T2)
                 (T2) (T2) (A1) (T2) (T2) (T2) (T1) (T1) (T1) (E)
                 (E) (A1) (T2) (T2) (T2) (E) (E) (T2) (T2) (T2)
                 (T1) (T1) (T1) (T2) (T2) (T2) (A1) (T2) (T2) (T2)
                 (T1) (T1) (T1) (A1) (T2) (T2) (T2) (E) (E) (T2)
                 (T2) (T2) (E) (E) (T1) (T1) (T1) (A1) (T2) (T2)
                 (T2) (A2) (T2) (T2) (T2) (T1) (T1) (T1) (T1) (T1)
                 (T1) (A1) (T2) (T2) (T2) (A1) (T2) (T2) (T2) (E)
                 (E) (A1) (T1) (T1) (T1) (E) (E) (T2) (T2) (T2)
                 (T2) (T2) (T2) (E) (E) (T1) (T1) (T1) (T2) (T2)
                 (T2) (A1) (A1) (E) (E) (T1) (T1) (T1) (T2) (T2)
                 (T2) (T2) (T2) (T2) (T2) (T2) (T2) (T1) (T1) (T1)
                 (E) (E) (T2) (T2) (T2) (E) (E) (T2) (T2) (T2)
                 (A1) (T1) (T1) (T1) (T2) (T2) (T2) (A1) (A1) (A1)
    24 initial guesses have been made.
 Convergence on wavefunction:    0.001000000000000
 Davidson Disk Diagonalization:  ConvIn= 1.00D-03 SkipCon=T Conv= 1.00D-03.
 Max sub-space:  2000 roots to seek:    24 dimension of matrix:         1900
 Iteration     1 Dimension    24 NMult     0 NNew     24
 Estimated number of processors is:   19
 CISAX will form     1 AO SS matrices at one time.
 NMat=     1 NSing=     1 JSym2X= 2.
 FoFJK:  IHMeth= 1 ICntrl=       0 DoSepK=F KAlg= 0 I1Cent=           0 FoldK=F
 IRaf= 990000000 NMat=       1 IRICut=       1 DoRegI=T DoRafI=F ISym2E= 2 IDoP0=0 IntGTp=1.
 FoFCou: FMM=F IPFlag=           0 FMFlag=      100000 FMFlg1=           0
         NFxFlg=           0 DoJE=F BraDBF=F KetDBF=F FulRan=T
         wScrn=  0.000000 ICntrl=         0 IOpCl=  0 I1Cent=           0 NGrid=           0
         NMat0=    1 NMatS0=      1 NMatT0=    0 NMatD0=    1 NMtDS0=    0 NMtDT0=    0
 Integrals replicated using symmetry in FoFCou.
 CoulSu:  requested number of processors reduced to:  18 ShMem   1 Linda.
 NMat=     1 NSing=     1 JSym2X= 2.
 CoulSu:  requested number of processors reduced to:  18 ShMem   1 Linda.
 NMat=     1 NSing=     1 JSym2X= 2.
 CoulSu:  requested number of processors reduced to:  18 ShMem   1 Linda.
 NMat=     1 NSing=     1 JSym2X= 2.
 CoulSu:  requested number of processors reduced to:  18 ShMem   1 Linda.
 NMat=     1 NSing=     1 JSym2X= 2.
 CoulSu:  requested number of processors reduced to:  18 ShMem   1 Linda.
 NMat=     1 NSing=     1 JSym2X= 2.
 CoulSu:  requested number of processors reduced to:  18 ShMem   1 Linda.
 NMat=     1 NSing=     1 JSym2X= 2.
 CoulSu:  requested number of processors reduced to:  18 ShMem   1 Linda.
 NMat=     1 NSing=     1 JSym2X= 2.
 CoulSu:  requested number of processors reduced to:  18 ShMem   1 Linda.
 NMat=     1 NSing=     1 JSym2X= 2.
 CoulSu:  requested number of processors reduced to:  18 ShMem   1 Linda.
 NMat=     1 NSing=     1 JSym2X= 2.
 CoulSu:  requested number of processors reduced to:  18 ShMem   1 Linda.
 NMat=     1 NSing=     1 JSym2X= 2.
 CoulSu:  requested number of processors reduced to:  18 ShMem   1 Linda.
 NMat=     1 NSing=     1 JSym2X= 2.
 CoulSu:  requested number of processors reduced to:  18 ShMem   1 Linda.
 NMat=     1 NSing=     0 JSym2X= 2.
 CoulSu:  requested number of processors reduced to:  18 ShMem   1 Linda.
 NMat=     1 NSing=     0 JSym2X= 2.
 CoulSu:  requested number of processors reduced to:  18 ShMem   1 Linda.
 NMat=     1 NSing=     0 JSym2X= 2.
 CoulSu:  requested number of processors reduced to:  18 ShMem   1 Linda.
 NMat=     1 NSing=     0 JSym2X= 2.
 CoulSu:  requested number of processors reduced to:  18 ShMem   1 Linda.
 NMat=     1 NSing=     0 JSym2X= 2.
 CoulSu:  requested number of processors reduced to:  18 ShMem   1 Linda.
 NMat=     1 NSing=     0 JSym2X= 2.
 CoulSu:  requested number of processors reduced to:  18 ShMem   1 Linda.
 NMat=     1 NSing=     0 JSym2X= 2.
 CoulSu:  requested number of processors reduced to:  18 ShMem   1 Linda.
 NMat=     1 NSing=     0 JSym2X= 2.
 CoulSu:  requested number of processors reduced to:  18 ShMem   1 Linda.
 NMat=     1 NSing=     0 JSym2X= 2.
 CoulSu:  requested number of processors reduced to:  18 ShMem   1 Linda.
 NMat=     1 NSing=     0 JSym2X= 2.
 CoulSu:  requested number of processors reduced to:  18 ShMem   1 Linda.
 NMat=     1 NSing=     0 JSym2X= 2.
 CoulSu:  requested number of processors reduced to:  18 ShMem   1 Linda.
 NMat=     1 NSing=     0 JSym2X= 2.
 CoulSu:  requested number of processors reduced to:  18 ShMem   1 Linda.
 New state      1 was old state      2
 Excitation Energies [eV] at current iteration:
 Root      1 :    10.238773637379970
 Root      2 :    10.238773637422970
 Root      3 :    10.238773637444630
 Root      4 :    10.463798137432580
 Root      5 :    10.463798137439900
 Root      6 :    10.463798137445610
 Root      7 :    12.443282484662850
 Root      8 :    12.443282484698040
 Root      9 :    12.443282484728160
 Root     10 :    12.467951190995520
 Root     11 :    12.467951191023370
 Root     12 :    12.467951191039660
 Root     13 :    12.481181060212310
 Root     14 :    12.481181060223700
 Root     15 :    12.481181060254230
 Root     16 :    12.487178492371180
 Root     17 :    12.487178492388120
 Root     18 :    12.487178492418480
 Root     19 :    12.496492035759360
 Root     20 :    12.496492035764180
 Root     21 :    12.548072117711450
 Root     22 :    12.548072117738980
 Root     23 :    12.679959814974750
 Root     24 :    16.168204298912400
 Iteration     2 Dimension    48 NMult    24 NNew     24
 Estimated number of processors is:   19
 CISAX will form     1 AO SS matrices at one time.
 NMat=     1 NSing=     1 JSym2X= 2.
 CoulSu:  requested number of processors reduced to:  18 ShMem   1 Linda.
 NMat=     1 NSing=     1 JSym2X= 2.
 CoulSu:  requested number of processors reduced to:  18 ShMem   1 Linda.
 NMat=     1 NSing=     1 JSym2X= 2.
 CoulSu:  requested number of processors reduced to:  18 ShMem   1 Linda.
 NMat=     1 NSing=     1 JSym2X= 2.
 CoulSu:  requested number of processors reduced to:  18 ShMem   1 Linda.
 NMat=     1 NSing=     1 JSym2X= 2.
 CoulSu:  requested number of processors reduced to:  18 ShMem   1 Linda.
 NMat=     1 NSing=     1 JSym2X= 2.
 CoulSu:  requested number of processors reduced to:  18 ShMem   1 Linda.
 NMat=     1 NSing=     1 JSym2X= 2.
 CoulSu:  requested number of processors reduced to:  18 ShMem   1 Linda.
 NMat=     1 NSing=     1 JSym2X= 2.
 CoulSu:  requested number of processors reduced to:  18 ShMem   1 Linda.
 NMat=     1 NSing=     1 JSym2X= 2.
 CoulSu:  requested number of processors reduced to:  18 ShMem   1 Linda.
 NMat=     1 NSing=     1 JSym2X= 2.
 CoulSu:  requested number of processors reduced to:  18 ShMem   1 Linda.
 NMat=     1 NSing=     1 JSym2X= 2.
 CoulSu:  requested number of processors reduced to:  18 ShMem   1 Linda.
 NMat=     1 NSing=     1 JSym2X= 2.
 CoulSu:  requested number of processors reduced to:  18 ShMem   1 Linda.
 NMat=     1 NSing=     0 JSym2X= 2.
 CoulSu:  requested number of processors reduced to:  18 ShMem   1 Linda.
 NMat=     1 NSing=     0 JSym2X= 2.
 CoulSu:  requested number of processors reduced to:  18 ShMem   1 Linda.
 NMat=     1 NSing=     0 JSym2X= 2.
 CoulSu:  requested number of processors reduced to:  18 ShMem   1 Linda.
 NMat=     1 NSing=     0 JSym2X= 2.
 CoulSu:  requested number of processors reduced to:  18 ShMem   1 Linda.
 NMat=     1 NSing=     0 JSym2X= 2.
 CoulSu:  requested number of processors reduced to:  18 ShMem   1 Linda.
 NMat=     1 NSing=     0 JSym2X= 2.
 CoulSu:  requested number of processors reduced to:  18 ShMem   1 Linda.
 NMat=     1 NSing=     0 JSym2X= 2.
 CoulSu:  requested number of processors reduced to:  18 ShMem   1 Linda.
 NMat=     1 NSing=     0 JSym2X= 2.
 CoulSu:  requested number of processors reduced to:  18 ShMem   1 Linda.
 NMat=     1 NSing=     0 JSym2X= 2.
 CoulSu:  requested number of processors reduced to:  18 ShMem   1 Linda.
 NMat=     1 NSing=     0 JSym2X= 2.
 CoulSu:  requested number of processors reduced to:  18 ShMem   1 Linda.
 NMat=     1 NSing=     0 JSym2X= 2.
 CoulSu:  requested number of processors reduced to:  18 ShMem   1 Linda.
 NMat=     1 NSing=     0 JSym2X= 2.
 CoulSu:  requested number of processors reduced to:  18 ShMem   1 Linda.
 New state      1 was old state      3
 Root      1 not converged, maximum delta is    0.411210630266893
 Excitation Energies [eV] at current iteration:
 Root      1 :     9.908015323996457   Change is   -0.330758313448170
 Root      2 :     9.908015531271204   Change is   -0.330758106108766
 Root      3 :     9.908015678479718   Change is   -0.330757958943254
 Root      4 :    10.347116453081060   Change is   -0.116681684358835
 Root      5 :    10.347116515969420   Change is   -0.116681621476192
 Root      6 :    10.347116603298780   Change is   -0.116681534133795
 Root      7 :    11.458977595137120   Change is   -1.220982219837622
 Root      8 :    12.054501366425740   Change is   -0.388781118237111
 Root      9 :    12.054501553706720   Change is   -0.388780930991321
 Root     10 :    12.054501708771150   Change is   -0.388780775957004
 Root     11 :    12.274781625621030   Change is   -0.193169565418634
 Root     12 :    12.274781698540450   Change is   -0.193169492455067
 Root     13 :    12.274781761044550   Change is   -0.193169429978813
 Root     14 :    12.297981615879060   Change is   -0.250090501832388
 Root     15 :    12.297981662089280   Change is   -0.250090455649700
 Root     16 :    12.338485838737360   Change is   -0.158006197021997
 Root     17 :    12.338485870470220   Change is   -0.158006165293964
 Root     18 :    12.386194095089060   Change is   -0.094986965123251
 Root     19 :    12.386194153463470   Change is   -0.094986906760237
 Root     20 :    12.386194211038210   Change is   -0.094986849216020
 Root     21 :    12.395635003906760   Change is   -0.091543488464414
 Root     22 :    12.395635176202340   Change is   -0.091543316216140
 Root     23 :    12.395635262575470   Change is   -0.091543229812655
 Root     24 :    13.356632970491440   Change is   -2.811571328420966
 Iteration     3 Dimension    54 NMult    48 NNew      6
 Estimated number of processors is:   19
 CISAX will form     1 AO SS matrices at one time.
 NMat=     1 NSing=     1 JSym2X= 2.
 CoulSu:  requested number of processors reduced to:  18 ShMem   1 Linda.
 NMat=     1 NSing=     1 JSym2X= 2.
 CoulSu:  requested number of processors reduced to:  18 ShMem   1 Linda.
 NMat=     1 NSing=     1 JSym2X= 2.
 CoulSu:  requested number of processors reduced to:  18 ShMem   1 Linda.
 NMat=     1 NSing=     0 JSym2X= 2.
 CoulSu:  requested number of processors reduced to:  18 ShMem   1 Linda.
 NMat=     1 NSing=     0 JSym2X= 2.
 CoulSu:  requested number of processors reduced to:  18 ShMem   1 Linda.
 NMat=     1 NSing=     0 JSym2X= 2.
 CoulSu:  requested number of processors reduced to:  18 ShMem   1 Linda.
 Root      1 not converged, maximum delta is    0.468789114373552
 Excitation Energies [eV] at current iteration:
 Root      1 :     9.870842705499966   Change is   -0.037172618496491
 Root      2 :     9.870842889790016   Change is   -0.037172641481188
 Root      3 :     9.870843024438297   Change is   -0.037172654041420
 Root      4 :    10.339773158676770   Change is   -0.007343294404288
 Root      5 :    10.339773165211160   Change is   -0.007343350758251
 Root      6 :    10.339773169143690   Change is   -0.007343434155096
 Iteration     4 Dimension    60 NMult    54 NNew      6
 Estimated number of processors is:   19
 CISAX will form     1 AO SS matrices at one time.
 NMat=     1 NSing=     1 JSym2X= 2.
 CoulSu:  requested number of processors reduced to:  18 ShMem   1 Linda.
 NMat=     1 NSing=     1 JSym2X= 2.
 CoulSu:  requested number of processors reduced to:  18 ShMem   1 Linda.
 NMat=     1 NSing=     1 JSym2X= 2.
 CoulSu:  requested number of processors reduced to:  18 ShMem   1 Linda.
 NMat=     1 NSing=     0 JSym2X= 2.
 CoulSu:  requested number of processors reduced to:  18 ShMem   1 Linda.
 NMat=     1 NSing=     0 JSym2X= 2.
 CoulSu:  requested number of processors reduced to:  18 ShMem   1 Linda.
 NMat=     1 NSing=     0 JSym2X= 2.
 CoulSu:  requested number of processors reduced to:  18 ShMem   1 Linda.
 Root      1 not converged, maximum delta is    0.298403607678155
 Excitation Energies [eV] at current iteration:
 Root      1 :     9.866345103447935   Change is   -0.004497602052029
 Root      2 :     9.866345415503867   Change is   -0.004497474286149
 Root      3 :     9.866345639081908   Change is   -0.004497385356389
 Root      4 :    10.339224644529910   Change is   -0.000548520681253
 Root      5 :    10.339224686595060   Change is   -0.000548472081715
 Root      6 :    10.339224719987210   Change is   -0.000548449156480
 Iteration     5 Dimension    66 NMult    60 NNew      6
 Estimated number of processors is:   19
 CISAX will form     1 AO SS matrices at one time.
 NMat=     1 NSing=     1 JSym2X= 2.
 CoulSu:  requested number of processors reduced to:  18 ShMem   1 Linda.
 NMat=     1 NSing=     1 JSym2X= 2.
 CoulSu:  requested number of processors reduced to:  18 ShMem   1 Linda.
 NMat=     1 NSing=     1 JSym2X= 2.
 CoulSu:  requested number of processors reduced to:  18 ShMem   1 Linda.
 NMat=     1 NSing=     0 JSym2X= 2.
 CoulSu:  requested number of processors reduced to:  18 ShMem   1 Linda.
 NMat=     1 NSing=     0 JSym2X= 2.
 CoulSu:  requested number of processors reduced to:  18 ShMem   1 Linda.
 NMat=     1 NSing=     0 JSym2X= 2.
 CoulSu:  requested number of processors reduced to:  18 ShMem   1 Linda.
 Root      1 not converged, maximum delta is    0.378195206822723
 Excitation Energies [eV] at current iteration:
 Root      1 :     9.865717093765126   Change is   -0.000628009682810
 Root      2 :     9.865717129553524   Change is   -0.000628285950342
 Root      3 :     9.865717161567821   Change is   -0.000628477514089
 Root      4 :    10.339192292040080   Change is   -0.000032352489835
 Root      5 :    10.339192298407060   Change is   -0.000032421580149
 Root      6 :    10.339192312961120   Change is   -0.000032373633941
 Iteration     6 Dimension    72 NMult    66 NNew      6
 Estimated number of processors is:   19
 CISAX will form     1 AO SS matrices at one time.
 NMat=     1 NSing=     1 JSym2X= 2.
 CoulSu:  requested number of processors reduced to:  18 ShMem   1 Linda.
 NMat=     1 NSing=     1 JSym2X= 2.
 CoulSu:  requested number of processors reduced to:  18 ShMem   1 Linda.
 NMat=     1 NSing=     1 JSym2X= 2.
 CoulSu:  requested number of processors reduced to:  18 ShMem   1 Linda.
 NMat=     1 NSing=     0 JSym2X= 2.
 CoulSu:  requested number of processors reduced to:  18 ShMem   1 Linda.
 NMat=     1 NSing=     0 JSym2X= 2.
 CoulSu:  requested number of processors reduced to:  18 ShMem   1 Linda.
 NMat=     1 NSing=     0 JSym2X= 2.
 CoulSu:  requested number of processors reduced to:  18 ShMem   1 Linda.
 Root      1 not converged, maximum delta is    0.347545974477649
 Excitation Energies [eV] at current iteration:
 Root      1 :     9.865677949056133   Change is   -0.000039144708993
 Root      2 :     9.865677960695635   Change is   -0.000039168857889
 Root      3 :     9.865677972411795   Change is   -0.000039189156024
 Root      4 :    10.339190361727240   Change is   -0.000001951233879
 Root      5 :    10.339190367566130   Change is   -0.000001930840926
 Root      6 :    10.339190375157990   Change is   -0.000001916882083
 Iteration     7 Dimension    78 NMult    72 NNew      6
 Estimated number of processors is:   19
 CISAX will form     1 AO SS matrices at one time.
 NMat=     1 NSing=     1 JSym2X= 2.
 CoulSu:  requested number of processors reduced to:  18 ShMem   1 Linda.
 NMat=     1 NSing=     1 JSym2X= 2.
 CoulSu:  requested number of processors reduced to:  18 ShMem   1 Linda.
 NMat=     1 NSing=     1 JSym2X= 2.
 CoulSu:  requested number of processors reduced to:  18 ShMem   1 Linda.
 NMat=     1 NSing=     0 JSym2X= 2.
 CoulSu:  requested number of processors reduced to:  18 ShMem   1 Linda.
 NMat=     1 NSing=     0 JSym2X= 2.
 CoulSu:  requested number of processors reduced to:  18 ShMem   1 Linda.
 NMat=     1 NSing=     0 JSym2X= 2.
 CoulSu:  requested number of processors reduced to:  18 ShMem   1 Linda.
 New state      1 was old state      3
 Root      1 not converged, maximum delta is    0.384425101909910
 Excitation Energies [eV] at current iteration:
 Root      1 :     9.865676876041192   Change is   -0.000001096370603
 Root      2 :     9.865676884086232   Change is   -0.000001064969901
 Root      3 :     9.865676890944400   Change is   -0.000001069751235
 Root      4 :    10.339190274572410   Change is   -0.000000087154830
 Root      5 :    10.339190279839960   Change is   -0.000000087726175
 Root      6 :    10.339190290852040   Change is   -0.000000084305954
 Iteration     8 Dimension    84 NMult    78 NNew      6
 Estimated number of processors is:   19
 CISAX will form     1 AO SS matrices at one time.
 NMat=     1 NSing=     1 JSym2X= 2.
 CoulSu:  requested number of processors reduced to:  18 ShMem   1 Linda.
 NMat=     1 NSing=     1 JSym2X= 2.
 CoulSu:  requested number of processors reduced to:  18 ShMem   1 Linda.
 NMat=     1 NSing=     1 JSym2X= 2.
 CoulSu:  requested number of processors reduced to:  18 ShMem   1 Linda.
 NMat=     1 NSing=     0 JSym2X= 2.
 CoulSu:  requested number of processors reduced to:  18 ShMem   1 Linda.
 NMat=     1 NSing=     0 JSym2X= 2.
 CoulSu:  requested number of processors reduced to:  18 ShMem   1 Linda.
 NMat=     1 NSing=     0 JSym2X= 2.
 CoulSu:  requested number of processors reduced to:  18 ShMem   1 Linda.
 Root      1 not converged, maximum delta is    0.041604665927498
 Excitation Energies [eV] at current iteration:
 Root      1 :     9.865676859646531   Change is   -0.000000016394663
 Root      2 :     9.865676866864781   Change is   -0.000000017221450
 Root      3 :     9.865676868912434   Change is   -0.000000022031966
 Root      4 :    10.339190264693340   Change is   -0.000000009879073
 Root      5 :    10.339190270210120   Change is   -0.000000009629839
 Root      6 :    10.339190275481770   Change is   -0.000000015370272
 Iteration     9 Dimension    90 NMult    84 NNew      6
 Estimated number of processors is:   19
 CISAX will form     1 AO SS matrices at one time.
 NMat=     1 NSing=     1 JSym2X= 2.
 CoulSu:  requested number of processors reduced to:  18 ShMem   1 Linda.
 NMat=     1 NSing=     1 JSym2X= 2.
 CoulSu:  requested number of processors reduced to:  18 ShMem   1 Linda.
 NMat=     1 NSing=     1 JSym2X= 2.
 CoulSu:  requested number of processors reduced to:  18 ShMem   1 Linda.
 NMat=     1 NSing=     0 JSym2X= 2.
 CoulSu:  requested number of processors reduced to:  18 ShMem   1 Linda.
 NMat=     1 NSing=     0 JSym2X= 2.
 CoulSu:  requested number of processors reduced to:  18 ShMem   1 Linda.
 NMat=     1 NSing=     0 JSym2X= 2.
 CoulSu:  requested number of processors reduced to:  18 ShMem   1 Linda.
 Root      1 not converged, maximum delta is    0.220409495110472
 Excitation Energies [eV] at current iteration:
 Root      1 :     9.865676857900702   Change is   -0.000000001745828
 Root      2 :     9.865676860636917   Change is   -0.000000006227865
 Root      3 :     9.865676864525209   Change is   -0.000000004387226
 Root      4 :    10.339190260882700   Change is   -0.000000003810635
 Root      5 :    10.339190265543960   Change is   -0.000000004666160
 Root      6 :    10.339190272944050   Change is   -0.000000002537716
 Iteration    10 Dimension    95 NMult    90 NNew      5
 Estimated number of processors is:   19
 CISAX will form     1 AO SS matrices at one time.
 NMat=     1 NSing=     1 JSym2X= 2.
 CoulSu:  requested number of processors reduced to:  18 ShMem   1 Linda.
 NMat=     1 NSing=     1 JSym2X= 2.
 CoulSu:  requested number of processors reduced to:  18 ShMem   1 Linda.
 NMat=     1 NSing=     0 JSym2X= 2.
 CoulSu:  requested number of processors reduced to:  18 ShMem   1 Linda.
 NMat=     1 NSing=     0 JSym2X= 2.
 CoulSu:  requested number of processors reduced to:  18 ShMem   1 Linda.
 NMat=     1 NSing=     0 JSym2X= 2.
 CoulSu:  requested number of processors reduced to:  18 ShMem   1 Linda.
 Root      1 not converged, maximum delta is    0.048101571202288
 Excitation Energies [eV] at current iteration:
 Root      1 :     9.865676856812209   Change is   -0.000000001088492
 Root      2 :     9.865676859164392   Change is   -0.000000001472526
 Root      3 :     9.865676862931359   Change is   -0.000000001593850
 Root      4 :    10.339190259101270   Change is   -0.000000001781435
 Root      5 :    10.339190262216910   Change is   -0.000000003327048
 Root      6 :    10.339190272898520   Change is   -0.000000000045531
 Convergence achieved on expansion vectors.
 ***********************************************************************
 Stability analysis using <AA,BB:AA,BB> singles matrix:
 ***********************************************************************
 1PDM for each excited state written to RWF  633
 Ground to excited state transition densities written to RWF  633

 Eigenvectors of the stability matrix:
 
 Eigenvector   1:      Triplet-T2   Eigenvalue= 0.3625570  <S**2>=2.000
       3 ->  6         0.42760
       4 ->  6         0.40309
       5 ->  6         0.32523
 
 Eigenvector   2:      Triplet-T2   Eigenvalue= 0.3625570  <S**2>=2.000
       3 ->  6        -0.37723
       5 ->  6         0.55374
       5 -> 15        -0.12581
 
 Eigenvector   3:      Triplet-T2   Eigenvalue= 0.3625570  <S**2>=2.000
       3 ->  6        -0.35490
       4 ->  6         0.53521
       4 -> 15        -0.12160
       5 ->  6        -0.19673
 
 Eigenvector   4:      Singlet-T2   Eigenvalue= 0.3799583  <S**2>=0.000
       3 ->  6         0.34227
       4 ->  6        -0.24768
       5 ->  6         0.55680
 
 Eigenvector   5:      Singlet-T2   Eigenvalue= 0.3799583  <S**2>=0.000
       3 ->  6         0.52424
       4 ->  6         0.44527
       5 ->  6        -0.12419
 
 Eigenvector   6:      Singlet-T2   Eigenvalue= 0.3799583  <S**2>=0.000
       3 ->  6        -0.31071
       4 ->  6         0.47844
       5 ->  6         0.40382
 The wavefunction is stable under the perturbations considered.
 Leave Link  914 at Sat Apr 17 19:08:03 2021, MaxMem=   104857600 cpu:           10307.1 elap:             257.3
 (Enter /s/ls4/users/knvvv/bin/g16sse/l508.exe)
 The wavefunction is already stable.
 Leave Link  508 at Sat Apr 17 19:08:03 2021, MaxMem=   104857600 cpu:               2.2 elap:               0.1
 (Enter /s/ls4/users/knvvv/bin/g16sse/l601.exe)
 Copying SCF densities to generalized density rwf, IOpCl= 0 IROHF=0.

 **********************************************************************

            Population analysis using the SCF density.

 **********************************************************************

 Orbital symmetries:
       Occupied  (A1) (A1) (T2) (T2) (T2)
       Virtual   (A1) (T2) (T2) (T2) (T2) (T2) (T2) (E) (E) (A1)
                 (A1) (T2) (T2) (T2) (T1) (T1) (T1) (T2) (T2) (T2)
                 (T2) (T2) (T2) (E) (E) (T2) (T2) (T2) (A1) (E)
                 (E) (A1) (T2) (T2) (T2) (T1) (T1) (T1) (T2) (T2)
                 (T2) (T2) (T2) (T2) (A1) (E) (E) (T2) (T2) (T2)
                 (A1) (T2) (T2) (T2) (E) (E) (T1) (T1) (T1) (T2)
                 (T2) (T2) (A1) (T2) (T2) (T2) (T1) (T1) (T1) (E)
                 (E) (A1) (T2) (T2) (T2) (E) (E) (T2) (T2) (T2)
                 (T1) (T1) (T1) (T2) (T2) (T2) (A1) (T2) (T2) (T2)
                 (T1) (T1) (T1) (A1) (T2) (T2) (T2) (E) (E) (T2)
                 (T2) (T2) (E) (E) (T1) (T1) (T1) (A1) (T2) (T2)
                 (T2) (A2) (T2) (T2) (T2) (T1) (T1) (T1) (T1) (T1)
                 (T1) (A1) (T2) (T2) (T2) (A1) (T2) (T2) (T2) (E)
                 (E) (A1) (T1) (T1) (T1) (E) (E) (T2) (T2) (T2)
                 (T2) (T2) (T2) (E) (E) (T1) (T1) (T1) (T2) (T2)
                 (T2) (A1) (A1) (E) (E) (T1) (T1) (T1) (T2) (T2)
                 (T2) (T2) (T2) (T2) (T2) (T2) (T2) (T1) (T1) (T1)
                 (E) (E) (T2) (T2) (T2) (E) (E) (T2) (T2) (T2)
                 (A1) (T1) (T1) (T1) (T2) (T2) (T2) (A1) (A1) (A1)
 The electronic state is 1-A1.
 Alpha  occ. eigenvalues --  -10.51701  -0.78758  -0.45730  -0.45730  -0.45730
 Alpha virt. eigenvalues --    0.01316   0.09836   0.09836   0.09836   0.13748
 Alpha virt. eigenvalues --    0.13748   0.13748   0.16563   0.16563   0.19447
 Alpha virt. eigenvalues --    0.24336   0.25745   0.25745   0.25745   0.26350
 Alpha virt. eigenvalues --    0.26350   0.26350   0.33791   0.33791   0.33791
 Alpha virt. eigenvalues --    0.35558   0.35558   0.35558   0.36881   0.36881
 Alpha virt. eigenvalues --    0.50835   0.50835   0.50835   0.54500   0.58314
 Alpha virt. eigenvalues --    0.58314   0.65419   0.76154   0.76154   0.76154
 Alpha virt. eigenvalues --    0.84983   0.84983   0.84983   0.85793   0.85793
 Alpha virt. eigenvalues --    0.85793   1.07526   1.07526   1.07526   1.14829
 Alpha virt. eigenvalues --    1.21472   1.21472   1.28638   1.28638   1.28638
 Alpha virt. eigenvalues --    1.28895   1.50129   1.50129   1.50129   1.85021
 Alpha virt. eigenvalues --    1.85021   1.92908   1.92908   1.92908   1.94923
 Alpha virt. eigenvalues --    1.94923   1.94923   2.06908   2.19637   2.19637
 Alpha virt. eigenvalues --    2.19637   2.19882   2.19882   2.19882   2.27285
 Alpha virt. eigenvalues --    2.27285   2.54612   2.63135   2.63135   2.63135
 Alpha virt. eigenvalues --    2.66580   2.66580   2.88576   2.88576   2.88576
 Alpha virt. eigenvalues --    2.92406   2.92406   2.92406   3.02578   3.02578
 Alpha virt. eigenvalues --    3.02578   3.03471   3.21407   3.21407   3.21407
 Alpha virt. eigenvalues --    3.21578   3.21578   3.21578   3.43644   3.77028
 Alpha virt. eigenvalues --    3.77028   3.77028   3.87892   3.87892   4.13048
 Alpha virt. eigenvalues --    4.13048   4.13048   5.21129   5.21129   5.33753
 Alpha virt. eigenvalues --    5.33753   5.33753   5.59498   5.62803   5.62803
 Alpha virt. eigenvalues --    5.62803   5.74858   5.81420   5.81420   5.81420
 Alpha virt. eigenvalues --    5.88721   5.88721   5.88721   6.02821   6.02821
 Alpha virt. eigenvalues --    6.02821   6.15603   6.25389   6.25389   6.25389
 Alpha virt. eigenvalues --    6.45110   6.50679   6.50679   6.50679   6.62124
 Alpha virt. eigenvalues --    6.62124   6.84536   7.08212   7.08212   7.08212
 Alpha virt. eigenvalues --    7.14838   7.14838   7.24429   7.24429   7.24429
 Alpha virt. eigenvalues --    7.41381   7.41381   7.41381   7.48814   7.48814
 Alpha virt. eigenvalues --    7.55596   7.55596   7.55596   7.72774   7.72774
 Alpha virt. eigenvalues --    7.72774   7.96313   8.06088   8.13368   8.13368
 Alpha virt. eigenvalues --    8.14838   8.14838   8.14838   8.16503   8.16503
 Alpha virt. eigenvalues --    8.16503   8.25126   8.25126   8.25126   8.58291
 Alpha virt. eigenvalues --    8.58291   8.58291   8.75980   8.75980   8.75980
 Alpha virt. eigenvalues --    9.21645   9.21645   9.58179   9.58179   9.58179
 Alpha virt. eigenvalues --    9.58928   9.58928   9.81796   9.81796   9.81796
 Alpha virt. eigenvalues --    9.93758  10.23934  10.23934  10.23934  11.49610
 Alpha virt. eigenvalues --   11.49610  11.49610  13.55566  29.18848 146.67160
          Condensed to atoms (all electrons):
               1          2          3          4          5
     1  C    5.247955   0.341340   0.341340   0.341340   0.341340
     2  H    0.341340   0.751635  -0.082101  -0.082101  -0.082101
     3  H    0.341340  -0.082101   0.751635  -0.082101  -0.082101
     4  H    0.341340  -0.082101  -0.082101   0.751635  -0.082101
     5  H    0.341340  -0.082101  -0.082101  -0.082101   0.751635
 Mulliken charges:
               1
     1  C   -0.613313
     2  H    0.153328
     3  H    0.153328
     4  H    0.153328
     5  H    0.153328
 Sum of Mulliken charges =  -0.00000
 Mulliken charges with hydrogens summed into heavy atoms:
               1
     1  C   -0.000000
 Electronic spatial extent (au):  <R**2>=             35.6276
 Charge=             -0.0000 electrons
 Dipole moment (field-independent basis, Debye):
    X=             -0.0000    Y=              0.0000    Z=             -0.0000  Tot=              0.0000
 Quadrupole moment (field-independent basis, Debye-Ang):
   XX=             -8.4291   YY=             -8.4291   ZZ=             -8.4291
   XY=             -0.0000   XZ=             -0.0000   YZ=              0.0000
 Traceless Quadrupole moment (field-independent basis, Debye-Ang):
   XX=             -0.0000   YY=              0.0000   ZZ=              0.0000
   XY=             -0.0000   XZ=             -0.0000   YZ=              0.0000
 Octapole moment (field-independent basis, Debye-Ang**2):
  XXX=             -0.0000  YYY=             -0.0000  ZZZ=              0.0000  XYY=             -0.0000
  XXY=             -0.0000  XXZ=             -0.0000  XZZ=             -0.0000  YZZ=             -0.0000
  YYZ=              0.0000  XYZ=              0.7505
 Hexadecapole moment (field-independent basis, Debye-Ang**3):
 XXXX=            -16.9355 YYYY=            -16.9355 ZZZZ=            -16.9355 XXXY=              0.0000
 XXXZ=             -0.0000 YYYX=              0.0000 YYYZ=              0.0000 ZZZX=             -0.0000
 ZZZY=              0.0000 XXYY=             -5.0940 XXZZ=             -5.0940 YYZZ=             -5.0940
 XXYZ=              0.0000 YYXZ=             -0.0000 ZZXY=              0.0000
 N-N= 1.349277831726D+01 E-N=-1.202331881229D+02  KE= 4.030474989528D+01
 PrsmSu:  requested number of processors reduced to:  21 ShMem   1 Linda.
 No NMR shielding tensors so no spin-rotation constants.
 Leave Link  601 at Sat Apr 17 19:08:16 2021, MaxMem=   104857600 cpu:             607.5 elap:              13.1
 (Enter /s/ls4/users/knvvv/bin/g16sse/l9999.exe)

 Test job not archived.
 1\1\GINC-N148\Stability\RM062X\Gen\C1H4\KNVVV\17-Apr-2021\0\\#P M062X/
 GEN Integral=UltraFineGrid SCF=NoSymm Stable=(RExt, Opt) IOp(1/33=1)\\
 Database calculations.\\0,1\C,0,0.,0.,0.\H,0,0.6266351309,-0.626635130
 9,0.6266351309\H,0,-0.6266351309,0.6266351309,0.6266351309\H,0,-0.6266
 351309,-0.6266351309,-0.6266351309\H,0,0.6266351309,0.6266351309,-0.62
 66351309\\Version=ES64L-G16RevA.03\State=1-A1\HF=-40.5063958\RMSD=1.05
 3e-09\Dipole=0.,0.,0.\Quadrupole=0.,0.,0.,0.,0.,0.\PG=TD [O(C1),4C3(H1
 )]\\@


 ... THE UNIVERSE IS NOT ONLY QUEERER THAN WE SUPPOSE,
 BUT QUEERER THAN WE CAN SUPPOSE ... 

                                   -- J. B. S. HALDANE
 Job cpu time:       0 days  4 hours 35 minutes 26.2 seconds.
 Elapsed time:       0 days  0 hours  6 minutes 32.8 seconds.
 File lengths (MBytes):  RWF=     82 Int=      0 D2E=      0 Chk=      9 Scr=      1
 Normal termination of Gaussian 16 at Sat Apr 17 19:08:16 2021.
