 Entering Gaussian System, Link 0=/s/ls4/users/knvvv/bin/g16sse/g16
 Input=data/database/M062X--def2-QZVPPD--52_hf2ts_BH76.gjf
 Output=data/database/M062X--def2-QZVPPD--52_hf2ts_BH76.log
 Initial command:
 /s/ls4/users/knvvv/bin/g16sse/l1.exe "/s/ls4/users/knvvv/bin/scratch/Gau-29845.inp" -scrdir="/s/ls4/users/knvvv/bin/scratch/"
 Entering Link 1 = /s/ls4/users/knvvv/bin/g16sse/l1.exe PID=     29846.
  
 Copyright (c) 1988,1990,1992,1993,1995,1998,2003,2009,2016,
            Gaussian, Inc.  All Rights Reserved.
  
 This is part of the Gaussian(R) 16 program.  It is based on
 the Gaussian(R) 09 system (copyright 2009, Gaussian, Inc.),
 the Gaussian(R) 03 system (copyright 2003, Gaussian, Inc.),
 the Gaussian(R) 98 system (copyright 1998, Gaussian, Inc.),
 the Gaussian(R) 94 system (copyright 1995, Gaussian, Inc.),
 the Gaussian 92(TM) system (copyright 1992, Gaussian, Inc.),
 the Gaussian 90(TM) system (copyright 1990, Gaussian, Inc.),
 the Gaussian 88(TM) system (copyright 1988, Gaussian, Inc.),
 the Gaussian 86(TM) system (copyright 1986, Carnegie Mellon
 University), and the Gaussian 82(TM) system (copyright 1983,
 Carnegie Mellon University). Gaussian is a federally registered
 trademark of Gaussian, Inc.
  
 This software contains proprietary and confidential information,
 including trade secrets, belonging to Gaussian, Inc.
  
 This software is provided under written license and may be
 used, copied, transmitted, or stored only in accord with that
 written license.
  
 The following legend is applicable only to US Government
 contracts under FAR:
  
                    RESTRICTED RIGHTS LEGEND
  
 Use, reproduction and disclosure by the US Government is
 subject to restrictions as set forth in subparagraphs (a)
 and (c) of the Commercial Computer Software - Restricted
 Rights clause in FAR 52.227-19.
  
 Gaussian, Inc.
 340 Quinnipiac St., Bldg. 40, Wallingford CT 06492
  
  
 ---------------------------------------------------------------
 Warning -- This program may not be used in any manner that
 competes with the business of Gaussian, Inc. or will provide
 assistance to any competitor of Gaussian, Inc.  The licensee
 of this program is prohibited from giving any competitor of
 Gaussian, Inc. access to this program.  By using this program,
 the user acknowledges that Gaussian, Inc. is engaged in the
 business of creating and licensing software in the field of
 computational chemistry and represents and warrants to the
 licensee that it is not a competitor of Gaussian, Inc. and that
 it will not use this program in any manner prohibited above.
 ---------------------------------------------------------------
  

 Cite this work as:
 Gaussian 16, Revision A.03,
 M. J. Frisch, G. W. Trucks, H. B. Schlegel, G. E. Scuseria, 
 M. A. Robb, J. R. Cheeseman, G. Scalmani, V. Barone, 
 G. A. Petersson, H. Nakatsuji, X. Li, M. Caricato, A. V. Marenich, 
 J. Bloino, B. G. Janesko, R. Gomperts, B. Mennucci, H. P. Hratchian, 
 J. V. Ortiz, A. F. Izmaylov, J. L. Sonnenberg, D. Williams-Young, 
 F. Ding, F. Lipparini, F. Egidi, J. Goings, B. Peng, A. Petrone, 
 T. Henderson, D. Ranasinghe, V. G. Zakrzewski, J. Gao, N. Rega, 
 G. Zheng, W. Liang, M. Hada, M. Ehara, K. Toyota, R. Fukuda, 
 J. Hasegawa, M. Ishida, T. Nakajima, Y. Honda, O. Kitao, H. Nakai, 
 T. Vreven, K. Throssell, J. A. Montgomery, Jr., J. E. Peralta, 
 F. Ogliaro, M. J. Bearpark, J. J. Heyd, E. N. Brothers, K. N. Kudin, 
 V. N. Staroverov, T. A. Keith, R. Kobayashi, J. Normand, 
 K. Raghavachari, A. P. Rendell, J. C. Burant, S. S. Iyengar, 
 J. Tomasi, M. Cossi, J. M. Millam, M. Klene, C. Adamo, R. Cammi, 
 J. W. Ochterski, R. L. Martin, K. Morokuma, O. Farkas, 
 J. B. Foresman, and D. J. Fox, Gaussian, Inc., Wallingford CT, 2016.
 
 ******************************************
 Gaussian 16:  ES64L-G16RevA.03 25-Dec-2016
                18-Apr-2021 
 ******************************************
 %RWF=temp12_44627,70GB
 %nprocshared=48
 Will use up to   48 processors via shared memory.
 Default route: MaxDisk=80GB
 ----------------------------------------------------------------------
 #P M062X/GEN Integral=UltraFineGrid SCF=NoSymm Stable=(RExt, Opt) IOp(
 1/33=1)
 ----------------------------------------------------------------------
 1/33=1,38=1,172=1/1;
 2/12=2,17=6,18=5,40=1/2;
 3/5=7,11=2,25=1,30=1,74=-55,75=-5/1,2,3;
 4/9=2/1;
 5/5=2,38=5/2;
 6/7=2,8=2,9=2,10=2,28=1/1;
 8/6=1,10=90,11=11/1;
 9/8=-3,42=1,46=1/14;
 5/5=2,8=3,17=40,38=5/8(-2);
 6/7=2,8=2,9=2,10=2,28=1/1;
 99/5=1,9=1/99;
 Leave Link    1 at Sun Apr 18 03:03:55 2021, MaxMem=           0 cpu:               8.1 elap:               0.2
 (Enter /s/ls4/users/knvvv/bin/g16sse/l101.exe)
 ONIOM data not found on unit 2.
 ----------------------
 Database calculations.
 ----------------------
 TstMul:  ICh=     0
 TstMul:  Mul=     2
 TstMul:  ICh=     0
 TstMul:  Mul=     2
 Symbolic Z-matrix:
 Charge =  0 Multiplicity = 2
 H                     0.        0.       -2.23128 
 F                     0.        0.       -0.61622 
 F                     0.        0.        0.86414 
 
 RdStrC is calling ZToCFu for IStruc=1 NZ=     3.
 PrtBox:  NBox=     1 Levels=  1 BoxLen=    8.00 SMaxX=        5.85
          Shift=            0.000000            0.000000            4.216500
 Box      1 Number                   0 centers from      1 to      3:
 After GenITR:
 ITRead=  0  0  0
 MicOpt= -1 -1 -1
 ITRead=  0  0  0
 MicOpt= -1 -1 -1
 NAtoms=      3 NQM=        3 NQMF=       0 NMMI=      0 NMMIF=      0
                NMic=       0 NMicF=      0.
                    Isotopes and Nuclear Properties:
 (Nuclear quadrupole moments (NQMom) in fm**2, nuclear magnetic moments (NMagM)
  in nuclear magnetons)

  Atom         1           2           3
 IAtWgt=           1          19          19
 AtmWgt=   1.0078250  18.9984033  18.9984033
 NucSpn=           1           1           1
 AtZEff=  -0.0000000  -0.0000000  -0.0000000
 NQMom=    0.0000000   0.0000000   0.0000000
 NMagM=    2.7928460   2.6288670   2.6288670
 AtZNuc=   1.0000000   9.0000000   9.0000000
 No MM parameters found.
 Leave Link  101 at Sun Apr 18 03:03:55 2021, MaxMem=   104857600 cpu:               8.9 elap:               0.2
 (Enter /s/ls4/users/knvvv/bin/g16sse/l202.exe)
                          Input orientation:                          
 ---------------------------------------------------------------------
 Center     Atomic      Atomic             Coordinates (Angstroms)
 Number     Number       Type             X           Y           Z
 ---------------------------------------------------------------------
      1          1           0        0.000000    0.000000   -2.231276
      2          9           0        0.000000    0.000000   -0.616216
      3          9           0        0.000000    0.000000    0.864136
 ---------------------------------------------------------------------
                    Distance matrix (angstroms):
                    1          2          3
     1  H    0.000000
     2  F    1.615059   0.000000
     3  F    3.095412   1.480352   0.000000
 Stoichiometry    F2H(2)
 Framework group  C*V[C*(HFF)]
 Deg. of freedom     2
 Full point group                 C*V     NOp   4
 Largest Abelian subgroup         C2V     NOp   4
 Largest concise Abelian subgroup C1      NOp   1
                         Standard orientation:                         
 ---------------------------------------------------------------------
 Center     Atomic      Atomic             Coordinates (Angstroms)
 Number     Number       Type             X           Y           Z
 ---------------------------------------------------------------------
      1          1           0        0.000000    0.000000   -2.231276
      2          9           0        0.000000    0.000000   -0.616216
      3          9           0        0.000000    0.000000    0.864136
 ---------------------------------------------------------------------
 Rotational constants (GHZ):           0.0000000          19.2429738          19.2429738
 Leave Link  202 at Sun Apr 18 03:03:55 2021, MaxMem=   104857600 cpu:               6.6 elap:               0.2
 (Enter /s/ls4/users/knvvv/bin/g16sse/l301.exe)
 General basis read from cards:  (5D, 7F)
 Centers:       1
 S 4 1.00
     Exponent=  1.9069169000D+02 Coefficients=  7.0815167000D-04
     Exponent=  2.8605532000D+01 Coefficients=  5.4678827000D-03
     Exponent=  6.5095943000D+00 Coefficients=  2.7966605000D-02
     Exponent=  1.8412455000D+00 Coefficients=  1.0764538000D-01
 S 1 1.00
     Exponent=  5.9853725000D-01 Coefficients=  1.0000000000D+00
 S 1 1.00
     Exponent=  2.1397624000D-01 Coefficients=  1.0000000000D+00
 S 1 1.00
     Exponent=  8.0316286000D-02 Coefficients=  1.0000000000D+00
 P 1 1.00
     Exponent=  2.2920000000D+00 Coefficients=  1.0000000000D+00
 P 1 1.00
     Exponent=  8.3800000000D-01 Coefficients=  1.0000000000D+00
 P 1 1.00
     Exponent=  2.9200000000D-01 Coefficients=  1.0000000000D+00
 P 1 1.00
     Exponent=  8.4063199228D-02 Coefficients=  1.0000000000D+00
 D 1 1.00
     Exponent=  2.0620000000D+00 Coefficients=  1.0000000000D+00
 D 1 1.00
     Exponent=  6.6200000000D-01 Coefficients=  1.0000000000D+00
 F 1 1.00
     Exponent=  1.3970000000D+00 Coefficients=  1.0000000000D+00
 ****
 Centers:       2      3
 S 8 1.00
     Exponent=  1.3253597345D+05 Coefficients=  4.7387482743D-05
     Exponent=  1.9758112588D+04 Coefficients=  3.7070120897D-04
     Exponent=  4.4851996947D+03 Coefficients=  1.9450784713D-03
     Exponent=  1.2738151020D+03 Coefficients=  8.0573291994D-03
     Exponent=  4.1893831236D+02 Coefficients=  2.7992880781D-02
     Exponent=  1.5255721985D+02 Coefficients=  8.2735120175D-02
     Exponent=  5.9821524823D+01 Coefficients=  1.9854169012D-01
     Exponent=  2.4819076932D+01 Coefficients=  3.4860632233D-01
 S 2 1.00
     Exponent=  1.0074446673D+02 Coefficients=  1.0505068816D-01
     Exponent=  3.0103728290D+01 Coefficients=  9.4068472434D-01
 S 1 1.00
     Exponent=  1.0814283272D+01 Coefficients=  1.0000000000D+00
 S 1 1.00
     Exponent=  4.8172886770D+00 Coefficients=  1.0000000000D+00
 S 1 1.00
     Exponent=  1.6559334213D+00 Coefficients=  1.0000000000D+00
 S 1 1.00
     Exponent=  6.4893519582D-01 Coefficients=  1.0000000000D+00
 S 1 1.00
     Exponent=  2.4778104545D-01 Coefficients=  1.0000000000D+00
 S 1 1.00
     Exponent=  8.7626236800D-02 Coefficients=  1.0000000000D+00
 P 5 1.00
     Exponent=  2.4096654114D+02 Coefficients=  3.0389933451D-03
     Exponent=  5.7020699781D+01 Coefficients=  2.4357738582D-02
     Exponent=  1.8126952120D+01 Coefficients=  1.1442925768D-01
     Exponent=  6.6457404621D+00 Coefficients=  3.7064659853D-01
     Exponent=  2.6375722892D+00 Coefficients=  7.9791551766D-01
 P 1 1.00
     Exponent=  1.0638217200D+00 Coefficients=  1.0000000000D+00
 P 1 1.00
     Exponent=  4.1932562750D-01 Coefficients=  1.0000000000D+00
 P 1 1.00
     Exponent=  1.5747588299D-01 Coefficients=  1.0000000000D+00
 P 1 1.00
     Exponent=  4.6772400332D-02 Coefficients=  1.0000000000D+00
 D 1 1.00
     Exponent=  5.0140000000D+00 Coefficients=  1.0000000000D+00
 D 1 1.00
     Exponent=  1.7250000000D+00 Coefficients=  1.0000000000D+00
 D 1 1.00
     Exponent=  5.8600000000D-01 Coefficients=  1.0000000000D+00
 D 1 1.00
     Exponent=  1.5967986245D-01 Coefficients=  1.0000000000D+00
 F 1 1.00
     Exponent=  3.5620000000D+00 Coefficients=  1.0000000000D+00
 F 1 1.00
     Exponent=  1.1480000000D+00 Coefficients=  1.0000000000D+00
 G 1 1.00
     Exponent=  2.3760000000D+00 Coefficients=  1.0000000000D+00
 ****
 Ernie: Thresh=  0.10000D-02 Tol=  0.10000D-05 Strict=F.
 There are    91 symmetry adapted cartesian basis functions of A1  symmetry.
 There are    21 symmetry adapted cartesian basis functions of A2  symmetry.
 There are    45 symmetry adapted cartesian basis functions of B1  symmetry.
 There are    45 symmetry adapted cartesian basis functions of B2  symmetry.
 There are    70 symmetry adapted basis functions of A1  symmetry.
 There are    19 symmetry adapted basis functions of A2  symmetry.
 There are    38 symmetry adapted basis functions of B1  symmetry.
 There are    38 symmetry adapted basis functions of B2  symmetry.
   165 basis functions,   245 primitive gaussians,   202 cartesian basis functions
    10 alpha electrons        9 beta electrons
       nuclear repulsion energy        33.4423025658 Hartrees.
 IExCor= 4336 DFT=T Ex+Corr=M062X ExCW=0 ScaHFX=  0.540000
 ScaDFX=  1.000000  1.000000  1.000000  1.000000 ScalE2=  1.000000  1.000000
 IRadAn=      5 IRanWt=     -1 IRanGd=            0 ICorTp=0 IEmpDi=  4
 NAtoms=    3 NActive=    3 NUniq=    3 SFac= 1.00D+00 NAtFMM=   60 NAOKFM=F Big=F
 Integral buffers will be    131072 words long.
 Raffenetti 2 integral format.
 Two-electron integral symmetry is turned on.
 Leave Link  301 at Sun Apr 18 03:03:56 2021, MaxMem=   104857600 cpu:              10.7 elap:               0.3
 (Enter /s/ls4/users/knvvv/bin/g16sse/l302.exe)
 NPDir=0 NMtPBC=     1 NCelOv=     1 NCel=       1 NClECP=     1 NCelD=      1
         NCelK=      1 NCelE2=     1 NClLst=     1 CellRange=     0.0.
 One-electron integrals computed using PRISM.
 One-electron integral symmetry used in STVInt
 PrsmSu:  requested number of processors reduced to:   4 ShMem   1 Linda.
 PrsmSu:  requested number of processors reduced to:  21 ShMem   1 Linda.
 NBasis=   165 RedAO= T EigKep=  2.79D-04  NBF=    70    19    38    38
 NBsUse=   165 1.00D-06 EigRej= -1.00D+00 NBFU=    70    19    38    38
 Precomputing XC quadrature grid using
 IXCGrd= 4 IRadAn=           5 IRanWt=          -1 IRanGd=           0 AccXCQ= 0.00D+00.
 Generated NRdTot=       0 NPtTot=           0 NUsed=           0 NTot=          32
 NSgBfM=   200   200   200   200   200 MxSgAt=     3 MxSgA2=     3.
 Leave Link  302 at Sun Apr 18 03:04:02 2021, MaxMem=   104857600 cpu:             265.6 elap:               5.8
 (Enter /s/ls4/users/knvvv/bin/g16sse/l303.exe)
 DipDrv:  MaxL=1.
 Leave Link  303 at Sun Apr 18 03:04:02 2021, MaxMem=   104857600 cpu:              36.0 elap:               0.8
 (Enter /s/ls4/users/knvvv/bin/g16sse/l401.exe)
 SCF N**3 symmetry information disabled.
 ExpMin= 4.68D-02 ExpMax= 1.33D+05 ExpMxC= 1.27D+03 IAcc=3 IRadAn=         5 AccDes= 0.00D+00
 Harris functional with IExCor= 1009 and IRadAn=       5 diagonalized for initial guess.
 HarFok:  IExCor= 1009 AccDes= 0.00D+00 IRadAn=         5 IDoV= 1 UseB2=F ITyADJ=14
 ICtDFT=  3500011 ScaDFX=  1.000000  1.000000  1.000000  1.000000
 FoFCou: FMM=F IPFlag=           0 FMFlag=      100000 FMFlg1=           0
         NFxFlg=           0 DoJE=T BraDBF=F KetDBF=T FulRan=T
         wScrn=  0.000000 ICntrl=       500 IOpCl=  0 I1Cent=   200000004 NGrid=           0
         NMat0=    1 NMatS0=      1 NMatT0=    0 NMatD0=    1 NMtDS0=    0 NMtDT0=    0
 Petite list used in FoFCou.
 CoulSu:  requested number of processors reduced to:  21 ShMem   1 Linda.
 CoulSu:  requested number of processors reduced to:  21 ShMem   1 Linda.
 CoulSu:  requested number of processors reduced to:  21 ShMem   1 Linda.
 CoulSu:  requested number of processors reduced to:  21 ShMem   1 Linda.
 Harris En= -199.934698787090    
 JPrj=0 DoOrth=F DoCkMO=F.
 Initial guess orbital symmetries:
 Alpha Orbitals:
       Occupied  (SG) (SG) (SG) (SG) (SG) (PI) (PI) (PI) (PI) (SG)
       Virtual   (SG) (SG) (PI) (PI) (SG) (PI) (PI) (SG) (SG) (PI)
                 (PI) (SG) (DLTA) (DLTA) (SG) (PI) (PI) (PI) (PI)
                 (SG) (DLTA) (DLTA) (PI) (PI) (SG) (SG) (PI) (PI)
                 (SG) (PI) (PI) (SG) (SG) (SG) (PI) (PI) (DLTA)
                 (DLTA) (SG) (PI) (PI) (SG) (DLTA) (DLTA) (PI)
                 (PI) (SG) (DLTA) (DLTA) (SG) (PI) (PI) (PI) (PI)
                 (PI) (PI) (SG) (SG) (SG) (DLTA) (DLTA) (SG) (PI)
                 (PI) (PHI) (PHI) (PHI) (PHI) (SG) (SG) (DLTA)
                 (DLTA) (PI) (PI) (DLTA) (DLTA) (SG) (DLTA) (DLTA)
                 (PI) (PI) (SG) (PI) (PI) (PHI) (PHI) (DLTA) (DLTA)
                 (SG) (PI) (PI) (PI) (PI) (PI) (PI) (SG) (SG) (SG)
                 (SG) (PI) (PI) (DLTA) (DLTA) (PI) (PI) (SG) (SG)
                 (PI) (PI) (DLTA) (DLTA) (SG) (PHI) (PHI) (?A)
                 (?A) (?A) (?A) (PHI) (PHI) (DLTA) (DLTA) (PI)
                 (PI) (SG) (DLTA) (DLTA) (PHI) (PHI) (PHI) (PHI)
                 (PI) (PI) (DLTA) (DLTA) (SG) (SG) (PI) (PI) (SG)
                 (DLTA) (DLTA) (DLTA) (DLTA) (PI) (PI) (PI) (PI)
                 (SG) (SG) (SG) (SG) (SG) (SG) (SG)
 Beta  Orbitals:
       Occupied  (SG) (SG) (SG) (SG) (SG) (PI) (PI) (PI) (PI)
       Virtual   (SG) (SG) (SG) (PI) (PI) (SG) (PI) (PI) (SG) (SG)
                 (PI) (PI) (SG) (DLTA) (DLTA) (SG) (PI) (PI) (PI)
                 (PI) (SG) (DLTA) (DLTA) (PI) (PI) (SG) (SG) (PI)
                 (PI) (SG) (PI) (PI) (SG) (SG) (SG) (PI) (PI) (DLTA)
                 (DLTA) (SG) (PI) (PI) (SG) (DLTA) (DLTA) (PI)
                 (PI) (SG) (DLTA) (DLTA) (SG) (PI) (PI) (PI) (PI)
                 (PI) (PI) (SG) (SG) (SG) (DLTA) (DLTA) (SG) (PI)
                 (PI) (PHI) (PHI) (PHI) (PHI) (SG) (SG) (DLTA)
                 (DLTA) (PI) (PI) (DLTA) (DLTA) (SG) (DLTA) (DLTA)
                 (PI) (PI) (SG) (PI) (PI) (PHI) (PHI) (DLTA) (DLTA)
                 (SG) (PI) (PI) (PI) (PI) (PI) (PI) (SG) (SG) (SG)
                 (SG) (PI) (PI) (DLTA) (DLTA) (PI) (PI) (SG) (SG)
                 (PI) (PI) (DLTA) (DLTA) (SG) (PHI) (PHI) (?A)
                 (?A) (?A) (?A) (PHI) (PHI) (DLTA) (DLTA) (PI)
                 (PI) (SG) (DLTA) (DLTA) (PHI) (PHI) (PHI) (PHI)
                 (PI) (PI) (DLTA) (DLTA) (SG) (SG) (PI) (PI) (SG)
                 (DLTA) (DLTA) (DLTA) (DLTA) (PI) (PI) (PI) (PI)
                 (SG) (SG) (SG) (SG) (SG) (SG) (SG)
 The electronic state of the initial guess is 2-SG.
 Initial guess <Sx>= 0.0000 <Sy>= 0.0000 <Sz>= 0.5000 <S**2>= 0.7500 S= 0.5000
 Leave Link  401 at Sun Apr 18 03:04:06 2021, MaxMem=   104857600 cpu:             133.4 elap:               3.1
 (Enter /s/ls4/users/knvvv/bin/g16sse/l502.exe)
 Integral symmetry usage will be decided dynamically.
 UHF open shell SCF:
 Using DIIS extrapolation, IDIIS=  1040.
 NGot=   104857600 LenX=   104763367 LenY=   104722122
 Requested convergence on RMS density matrix=1.00D-08 within 128 cycles.
 Requested convergence on MAX density matrix=1.00D-06.
 Requested convergence on             energy=1.00D-06.
 No special actions if energy rises.
 Fock matrices will be formed incrementally for  20 cycles.

 Cycle   1  Pass 1  IDiag  1:
 FoFJK:  IHMeth= 1 ICntrl=       0 DoSepK=F KAlg= 0 I1Cent=           0 FoldK=F
 IRaf= 980000000 NMat=       1 IRICut=       1 DoRegI=T DoRafI=F ISym2E= 1 IDoP0=0 IntGTp=1.
 FoFCou: FMM=F IPFlag=           0 FMFlag=      100000 FMFlg1=           0
         NFxFlg=           0 DoJE=F BraDBF=F KetDBF=F FulRan=T
         wScrn=  0.000000 ICntrl=         0 IOpCl=  1 I1Cent=           0 NGrid=           0
         NMat0=    1 NMatS0=      1 NMatT0=    0 NMatD0=    1 NMtDS0=    0 NMtDT0=    0
 Petite list used in FoFCou.
 CoulSu:  requested number of processors reduced to:  20 ShMem   1 Linda.
 E= -199.978096954201    
 DIIS: error= 3.95D-02 at cycle   1 NSaved=   1.
 NSaved= 1 IEnMin= 1 EnMin= -199.978096954201     IErMin= 1 ErrMin= 3.95D-02
 ErrMax= 3.95D-02  0.00D+00 EMaxC= 1.00D-01 BMatC= 3.73D-01 BMatP= 3.73D-01
 IDIUse=3 WtCom= 6.05D-01 WtEn= 3.95D-01
 Coeff-Com:  0.100D+01
 Coeff-En:   0.100D+01
 Coeff:      0.100D+01
 Gap=     0.233 Goal=   None    Shift=    0.000
 Gap=     0.268 Goal=   None    Shift=    0.000
 GapD=    0.233 DampG=1.000 DampE=0.500 DampFc=0.5000 IDamp=-1.
 Damping current iteration by 5.00D-01
 RMSDP=1.52D-03 MaxDP=1.25D-01              OVMax= 3.49D-01

 Cycle   2  Pass 1  IDiag  1:
 RMSU=  7.56D-04    CP:  9.89D-01
 CoulSu:  requested number of processors reduced to:  20 ShMem   1 Linda.
 E= -199.996216202058     Delta-E=       -0.018119247857 Rises=F Damp=T
 DIIS: error= 2.05D-02 at cycle   2 NSaved=   2.
 NSaved= 2 IEnMin= 2 EnMin= -199.996216202058     IErMin= 2 ErrMin= 2.05D-02
 ErrMax= 2.05D-02  0.00D+00 EMaxC= 1.00D-01 BMatC= 1.08D-01 BMatP= 3.73D-01
 IDIUse=3 WtCom= 7.95D-01 WtEn= 2.05D-01
 Coeff-Com: -0.769D-01 0.108D+01
 Coeff-En:   0.458D-01 0.954D+00
 Coeff:     -0.518D-01 0.105D+01
 Gap=     0.273 Goal=   None    Shift=    0.000
 Gap=     0.360 Goal=   None    Shift=    0.000
 RMSDP=5.59D-04 MaxDP=3.89D-02 DE=-1.81D-02 OVMax= 1.47D-01

 Cycle   3  Pass 1  IDiag  1:
 RMSU=  5.32D-04    CP:  9.99D-01  1.19D+00
 CoulSu:  requested number of processors reduced to:  20 ShMem   1 Linda.
 E= -200.021753120456     Delta-E=       -0.025536918398 Rises=F Damp=F
 DIIS: error= 8.68D-03 at cycle   3 NSaved=   3.
 NSaved= 3 IEnMin= 3 EnMin= -200.021753120456     IErMin= 3 ErrMin= 8.68D-03
 ErrMax= 8.68D-03  0.00D+00 EMaxC= 1.00D-01 BMatC= 4.07D-02 BMatP= 1.08D-01
 IDIUse=3 WtCom= 9.13D-01 WtEn= 8.68D-02
 Coeff-Com: -0.225D+00 0.504D+00 0.721D+00
 Coeff-En:   0.000D+00 0.000D+00 0.100D+01
 Coeff:     -0.205D+00 0.461D+00 0.745D+00
 Gap=     0.281 Goal=   None    Shift=    0.000
 Gap=     0.327 Goal=   None    Shift=    0.000
 RMSDP=3.26D-04 MaxDP=2.09D-02 DE=-2.55D-02 OVMax= 6.74D-02

 Cycle   4  Pass 1  IDiag  1:
 RMSU=  2.02D-04    CP:  9.95D-01  1.52D+00  8.62D-01
 CoulSu:  requested number of processors reduced to:  20 ShMem   1 Linda.
 E= -200.028210083097     Delta-E=       -0.006456962641 Rises=F Damp=F
 DIIS: error= 4.49D-03 at cycle   4 NSaved=   4.
 NSaved= 4 IEnMin= 4 EnMin= -200.028210083097     IErMin= 4 ErrMin= 4.49D-03
 ErrMax= 4.49D-03  0.00D+00 EMaxC= 1.00D-01 BMatC= 1.01D-02 BMatP= 4.07D-02
 IDIUse=3 WtCom= 9.55D-01 WtEn= 4.49D-02
 Coeff-Com: -0.960D-01 0.194D+00 0.410D+00 0.492D+00
 Coeff-En:   0.000D+00 0.000D+00 0.000D+00 0.100D+01
 Coeff:     -0.917D-01 0.185D+00 0.392D+00 0.515D+00
 Gap=     0.294 Goal=   None    Shift=    0.000
 Gap=     0.317 Goal=   None    Shift=    0.000
 RMSDP=1.11D-04 MaxDP=5.46D-03 DE=-6.46D-03 OVMax= 2.56D-02

 Cycle   5  Pass 1  IDiag  1:
 RMSU=  9.39D-05    CP:  9.94D-01  1.54D+00  9.44D-01  8.30D-01
 CoulSu:  requested number of processors reduced to:  20 ShMem   1 Linda.
 E= -200.029903376928     Delta-E=       -0.001693293831 Rises=F Damp=F
 DIIS: error= 1.80D-03 at cycle   5 NSaved=   5.
 NSaved= 5 IEnMin= 5 EnMin= -200.029903376928     IErMin= 5 ErrMin= 1.80D-03
 ErrMax= 1.80D-03  0.00D+00 EMaxC= 1.00D-01 BMatC= 1.07D-03 BMatP= 1.01D-02
 IDIUse=3 WtCom= 9.82D-01 WtEn= 1.80D-02
 Coeff-Com:  0.784D-01-0.162D+00-0.221D+00 0.851D-01 0.122D+01
 Coeff-En:   0.000D+00 0.000D+00 0.000D+00 0.000D+00 0.100D+01
 Coeff:      0.770D-01-0.159D+00-0.217D+00 0.836D-01 0.122D+01
 Gap=     0.301 Goal=   None    Shift=    0.000
 Gap=     0.319 Goal=   None    Shift=    0.000
 RMSDP=1.12D-04 MaxDP=7.82D-03 DE=-1.69D-03 OVMax= 2.15D-02

 Cycle   6  Pass 1  IDiag  1:
 RMSU=  4.12D-05    CP:  9.94D-01  1.61D+00  9.82D-01  1.19D+00  1.49D+00
 CoulSu:  requested number of processors reduced to:  20 ShMem   1 Linda.
 E= -200.030480798029     Delta-E=       -0.000577421101 Rises=F Damp=F
 DIIS: error= 7.46D-04 at cycle   6 NSaved=   6.
 NSaved= 6 IEnMin= 6 EnMin= -200.030480798029     IErMin= 6 ErrMin= 7.46D-04
 ErrMax= 7.46D-04  0.00D+00 EMaxC= 1.00D-01 BMatC= 1.47D-04 BMatP= 1.07D-03
 IDIUse=3 WtCom= 9.93D-01 WtEn= 7.46D-03
 Coeff-Com:  0.310D-01-0.581D-01-0.703D-01-0.996D-01 0.116D+00 0.108D+01
 Coeff-En:   0.000D+00 0.000D+00 0.000D+00 0.000D+00 0.000D+00 0.100D+01
 Coeff:      0.308D-01-0.577D-01-0.698D-01-0.989D-01 0.115D+00 0.108D+01
 Gap=     0.303 Goal=   None    Shift=    0.000
 Gap=     0.319 Goal=   None    Shift=    0.000
 RMSDP=3.97D-05 MaxDP=2.41D-03 DE=-5.77D-04 OVMax= 8.70D-03

 Cycle   7  Pass 1  IDiag  1:
 RMSU=  1.58D-05    CP:  9.94D-01  1.62D+00  1.01D+00  1.27D+00  1.72D+00
                    CP:  1.44D+00
 CoulSu:  requested number of processors reduced to:  20 ShMem   1 Linda.
 E= -200.030551115367     Delta-E=       -0.000070317338 Rises=F Damp=F
 DIIS: error= 2.05D-04 at cycle   7 NSaved=   7.
 NSaved= 7 IEnMin= 7 EnMin= -200.030551115367     IErMin= 7 ErrMin= 2.05D-04
 ErrMax= 2.05D-04  0.00D+00 EMaxC= 1.00D-01 BMatC= 9.62D-06 BMatP= 1.47D-04
 IDIUse=3 WtCom= 9.98D-01 WtEn= 2.05D-03
 Coeff-Com: -0.172D-02 0.400D-02 0.594D-02-0.445D-02-0.255D-01-0.462D-01
 Coeff-Com:  0.107D+01
 Coeff-En:   0.000D+00 0.000D+00 0.000D+00 0.000D+00 0.000D+00 0.000D+00
 Coeff-En:   0.100D+01
 Coeff:     -0.172D-02 0.399D-02 0.593D-02-0.444D-02-0.254D-01-0.461D-01
 Coeff:      0.107D+01
 Gap=     0.303 Goal=   None    Shift=    0.000
 Gap=     0.322 Goal=   None    Shift=    0.000
 RMSDP=1.18D-05 MaxDP=4.92D-04 DE=-7.03D-05 OVMax= 2.19D-03

 Cycle   8  Pass 1  IDiag  1:
 RMSU=  7.82D-06    CP:  9.94D-01  1.62D+00  1.01D+00  1.27D+00  1.72D+00
                    CP:  1.56D+00  1.37D+00
 CoulSu:  requested number of processors reduced to:  20 ShMem   1 Linda.
 E= -200.030560526143     Delta-E=       -0.000009410776 Rises=F Damp=F
 DIIS: error= 1.35D-04 at cycle   8 NSaved=   8.
 NSaved= 8 IEnMin= 8 EnMin= -200.030560526143     IErMin= 8 ErrMin= 1.35D-04
 ErrMax= 1.35D-04  0.00D+00 EMaxC= 1.00D-01 BMatC= 4.52D-06 BMatP= 9.62D-06
 IDIUse=3 WtCom= 9.99D-01 WtEn= 1.35D-03
 Coeff-Com: -0.387D-02 0.736D-02 0.130D-02 0.408D-02 0.436D-02-0.143D+00
 Coeff-Com: -0.119D+00 0.125D+01
 Coeff-En:   0.000D+00 0.000D+00 0.000D+00 0.000D+00 0.000D+00 0.000D+00
 Coeff-En:   0.000D+00 0.100D+01
 Coeff:     -0.387D-02 0.735D-02 0.130D-02 0.408D-02 0.436D-02-0.143D+00
 Coeff:     -0.119D+00 0.125D+01
 Gap=     0.303 Goal=   None    Shift=    0.000
 Gap=     0.322 Goal=   None    Shift=    0.000
 RMSDP=9.81D-06 MaxDP=4.24D-04 DE=-9.41D-06 OVMax= 2.19D-03

 Cycle   9  Pass 1  IDiag  1:
 RMSU=  4.04D-06    CP:  9.94D-01  1.61D+00  1.01D+00  1.27D+00  1.72D+00
                    CP:  1.62D+00  1.63D+00  1.92D+00
 CoulSu:  requested number of processors reduced to:  20 ShMem   1 Linda.
 E= -200.030566119608     Delta-E=       -0.000005593466 Rises=F Damp=F
 DIIS: error= 8.13D-05 at cycle   9 NSaved=   9.
 NSaved= 9 IEnMin= 9 EnMin= -200.030566119608     IErMin= 9 ErrMin= 8.13D-05
 ErrMax= 8.13D-05  0.00D+00 EMaxC= 1.00D-01 BMatC= 1.91D-06 BMatP= 4.52D-06
 IDIUse=1 WtCom= 1.00D+00 WtEn= 0.00D+00
 Coeff-Com:  0.408D-03-0.957D-03-0.586D-02-0.667D-02 0.153D-01 0.436D-01
 Coeff-Com: -0.388D+00-0.347D-02 0.135D+01
 Coeff:      0.408D-03-0.957D-03-0.586D-02-0.667D-02 0.153D-01 0.436D-01
 Coeff:     -0.388D+00-0.347D-02 0.135D+01
 Gap=     0.303 Goal=   None    Shift=    0.000
 Gap=     0.323 Goal=   None    Shift=    0.000
 RMSDP=8.83D-06 MaxDP=3.94D-04 DE=-5.59D-06 OVMax= 1.82D-03

 Cycle  10  Pass 1  IDiag  1:
 RMSU=  2.25D-06    CP:  9.94D-01  1.61D+00  1.01D+00  1.27D+00  1.72D+00
                    CP:  1.65D+00  1.78D+00  2.77D+00  1.88D+00
 CoulSu:  requested number of processors reduced to:  20 ShMem   1 Linda.
 E= -200.030568782587     Delta-E=       -0.000002662978 Rises=F Damp=F
 DIIS: error= 3.50D-05 at cycle  10 NSaved=  10.
 NSaved=10 IEnMin=10 EnMin= -200.030568782587     IErMin=10 ErrMin= 3.50D-05
 ErrMax= 3.50D-05  0.00D+00 EMaxC= 1.00D-01 BMatC= 3.45D-07 BMatP= 1.91D-06
 IDIUse=1 WtCom= 1.00D+00 WtEn= 0.00D+00
 Coeff-Com: -0.738D-04 0.156D-03 0.479D-03-0.185D-02-0.393D-02 0.237D-01
 Coeff-Com: -0.551D-03-0.388D+00 0.157D+00 0.121D+01
 Coeff:     -0.738D-04 0.156D-03 0.479D-03-0.185D-02-0.393D-02 0.237D-01
 Coeff:     -0.551D-03-0.388D+00 0.157D+00 0.121D+01
 Gap=     0.304 Goal=   None    Shift=    0.000
 Gap=     0.322 Goal=   None    Shift=    0.000
 RMSDP=5.66D-06 MaxDP=2.45D-04 DE=-2.66D-06 OVMax= 1.16D-03

 Cycle  11  Pass 1  IDiag  1:
 RMSU=  2.14D-06    CP:  9.94D-01  1.61D+00  1.01D+00  1.27D+00  1.72D+00
                    CP:  1.67D+00  1.90D+00  3.00D+00  2.56D+00  1.52D+00
 CoulSu:  requested number of processors reduced to:  20 ShMem   1 Linda.
 E= -200.030569381940     Delta-E=       -0.000000599353 Rises=F Damp=F
 DIIS: error= 1.17D-05 at cycle  11 NSaved=  11.
 NSaved=11 IEnMin=11 EnMin= -200.030569381940     IErMin=11 ErrMin= 1.17D-05
 ErrMax= 1.17D-05  0.00D+00 EMaxC= 1.00D-01 BMatC= 3.20D-08 BMatP= 3.45D-07
 IDIUse=1 WtCom= 1.00D+00 WtEn= 0.00D+00
 Coeff-Com: -0.600D-05 0.261D-04-0.937D-04 0.608D-03 0.103D-02-0.278D-02
 Coeff-Com:  0.330D-01 0.100D-01-0.152D+00-0.325D-01 0.114D+01
 Coeff:     -0.600D-05 0.261D-04-0.937D-04 0.608D-03 0.103D-02-0.278D-02
 Coeff:      0.330D-01 0.100D-01-0.152D+00-0.325D-01 0.114D+01
 Gap=     0.304 Goal=   None    Shift=    0.000
 Gap=     0.322 Goal=   None    Shift=    0.000
 RMSDP=1.14D-06 MaxDP=4.57D-05 DE=-5.99D-07 OVMax= 2.11D-04

 Cycle  12  Pass 1  IDiag  1:
 RMSU=  1.87D-07    CP:  9.94D-01  1.61D+00  1.01D+00  1.27D+00  1.71D+00
                    CP:  1.67D+00  1.91D+00  3.00D+00  2.69D+00  1.72D+00
                    CP:  1.36D+00
 CoulSu:  requested number of processors reduced to:  20 ShMem   1 Linda.
 E= -200.030569403735     Delta-E=       -0.000000021795 Rises=F Damp=F
 DIIS: error= 1.76D-06 at cycle  12 NSaved=  12.
 NSaved=12 IEnMin=12 EnMin= -200.030569403735     IErMin=12 ErrMin= 1.76D-06
 ErrMax= 1.76D-06  0.00D+00 EMaxC= 1.00D-01 BMatC= 1.12D-09 BMatP= 3.20D-08
 IDIUse=1 WtCom= 1.00D+00 WtEn= 0.00D+00
 Coeff-Com: -0.297D-04 0.560D-04 0.193D-05 0.171D-03-0.134D-04-0.286D-02
 Coeff-Com:  0.551D-02 0.425D-01-0.367D-01-0.111D+00 0.124D+00 0.979D+00
 Coeff:     -0.297D-04 0.560D-04 0.193D-05 0.171D-03-0.134D-04-0.286D-02
 Coeff:      0.551D-02 0.425D-01-0.367D-01-0.111D+00 0.124D+00 0.979D+00
 Gap=     0.304 Goal=   None    Shift=    0.000
 Gap=     0.322 Goal=   None    Shift=    0.000
 RMSDP=1.13D-07 MaxDP=3.32D-06 DE=-2.18D-08 OVMax= 1.11D-05

 Cycle  13  Pass 1  IDiag  1:
 RMSU=  7.31D-08    CP:  9.94D-01  1.61D+00  1.01D+00  1.27D+00  1.71D+00
                    CP:  1.67D+00  1.91D+00  3.00D+00  2.70D+00  1.75D+00
                    CP:  1.37D+00  1.14D+00
 CoulSu:  requested number of processors reduced to:  20 ShMem   1 Linda.
 E= -200.030569404109     Delta-E=       -0.000000000374 Rises=F Damp=F
 DIIS: error= 3.80D-07 at cycle  13 NSaved=  13.
 NSaved=13 IEnMin=13 EnMin= -200.030569404109     IErMin=13 ErrMin= 3.80D-07
 ErrMax= 3.80D-07  0.00D+00 EMaxC= 1.00D-01 BMatC= 4.92D-11 BMatP= 1.12D-09
 IDIUse=1 WtCom= 1.00D+00 WtEn= 0.00D+00
 Coeff-Com: -0.763D-05 0.146D-04 0.244D-04 0.666D-05-0.149D-03-0.911D-04
 Coeff-Com:  0.649D-04 0.418D-02-0.191D-02-0.854D-02-0.280D-01 0.107D+00
 Coeff-Com:  0.928D+00
 Coeff:     -0.763D-05 0.146D-04 0.244D-04 0.666D-05-0.149D-03-0.911D-04
 Coeff:      0.649D-04 0.418D-02-0.191D-02-0.854D-02-0.280D-01 0.107D+00
 Coeff:      0.928D+00
 Gap=     0.304 Goal=   None    Shift=    0.000
 Gap=     0.322 Goal=   None    Shift=    0.000
 RMSDP=2.23D-08 MaxDP=8.87D-07 DE=-3.74D-10 OVMax= 3.38D-06

 Cycle  14  Pass 1  IDiag  1:
 RMSU=  9.88D-09    CP:  9.94D-01  1.61D+00  1.01D+00  1.27D+00  1.71D+00
                    CP:  1.67D+00  1.91D+00  3.00D+00  2.70D+00  1.76D+00
                    CP:  1.38D+00  1.17D+00  1.06D+00
 CoulSu:  requested number of processors reduced to:  20 ShMem   1 Linda.
 E= -200.030569404122     Delta-E=       -0.000000000013 Rises=F Damp=F
 DIIS: error= 1.80D-07 at cycle  14 NSaved=  14.
 NSaved=14 IEnMin=14 EnMin= -200.030569404122     IErMin=14 ErrMin= 1.80D-07
 ErrMax= 1.80D-07  0.00D+00 EMaxC= 1.00D-01 BMatC= 5.90D-12 BMatP= 4.92D-11
 IDIUse=1 WtCom= 1.00D+00 WtEn= 0.00D+00
 Coeff-Com: -0.475D-06 0.107D-05 0.799D-05-0.871D-05-0.583D-04 0.205D-03
 Coeff-Com: -0.414D-03-0.153D-02 0.172D-02 0.506D-02-0.184D-01-0.274D-01
 Coeff-Com:  0.295D+00 0.746D+00
 Coeff:     -0.475D-06 0.107D-05 0.799D-05-0.871D-05-0.583D-04 0.205D-03
 Coeff:     -0.414D-03-0.153D-02 0.172D-02 0.506D-02-0.184D-01-0.274D-01
 Coeff:      0.295D+00 0.746D+00
 Gap=     0.304 Goal=   None    Shift=    0.000
 Gap=     0.322 Goal=   None    Shift=    0.000
 RMSDP=4.55D-09 MaxDP=2.80D-07 DE=-1.27D-11 OVMax= 7.09D-07

 SCF Done:  E(UM062X) =  -200.030569404     A.U. after   14 cycles
            NFock= 14  Conv=0.46D-08     -V/T= 2.0028
 <Sx>= 0.0000 <Sy>= 0.0000 <Sz>= 0.5000 <S**2>= 0.7947 S= 0.5221
 <L.S>= 0.000000000000E+00
 KE= 1.994766124923D+02 PE=-5.452531104448D+02 EE= 1.123036259826D+02
 Annihilation of the first spin contaminant:
 S**2 before annihilation     0.7947,   after     0.7500
 Leave Link  502 at Sun Apr 18 03:04:32 2021, MaxMem=   104857600 cpu:             990.2 elap:              26.5
 (Enter /s/ls4/users/knvvv/bin/g16sse/l601.exe)
 Copying SCF densities to generalized density rwf, IOpCl= 1 IROHF=0.

 **********************************************************************

            Population analysis using the SCF density.

 **********************************************************************

 Orbital symmetries:
 Alpha Orbitals:
       Occupied  (SG) (SG) (SG) (SG) (SG) (PI) (PI) (PI) (PI) (SG)
       Virtual   (SG) (SG) (PI) (PI) (SG) (PI) (PI) (SG) (PI) (PI)
                 (SG) (SG) (SG) (DLTA) (DLTA) (PI) (PI) (PI) (PI)
                 (SG) (DLTA) (DLTA) (PI) (PI) (SG) (SG) (PI) (PI)
                 (SG) (PI) (PI) (SG) (SG) (SG) (PI) (PI) (DLTA)
                 (DLTA) (SG) (PI) (PI) (SG) (DLTA) (DLTA) (PI)
                 (PI) (SG) (DLTA) (DLTA) (SG) (PI) (PI) (PI) (PI)
                 (PI) (PI) (SG) (SG) (SG) (DLTA) (DLTA) (SG) (PI)
                 (PI) (PHI) (PHI) (PHI) (PHI) (SG) (SG) (DLTA)
                 (DLTA) (SG) (PI) (PI) (DLTA) (DLTA) (DLTA) (DLTA)
                 (PI) (PI) (SG) (PHI) (PHI) (DLTA) (DLTA) (PI)
                 (PI) (PI) (PI) (SG) (SG) (PI) (PI) (PI) (PI) (SG)
                 (SG) (SG) (PI) (PI) (DLTA) (DLTA) (PI) (PI) (SG)
                 (SG) (PI) (PI) (DLTA) (DLTA) (SG) (PHI) (PHI)
                 (?A) (?A) (PHI) (PHI) (?A) (?A) (DLTA) (DLTA)
                 (PI) (PI) (SG) (DLTA) (DLTA) (PHI) (PHI) (PHI)
                 (PHI) (PI) (PI) (DLTA) (DLTA) (SG) (SG) (PI) (PI)
                 (SG) (DLTA) (DLTA) (DLTA) (DLTA) (PI) (PI) (PI)
                 (PI) (SG) (SG) (SG) (SG) (SG) (SG) (SG)
 Beta  Orbitals:
       Occupied  (SG) (SG) (SG) (SG) (SG) (PI) (PI) (PI) (PI)
       Virtual   (SG) (SG) (PI) (PI) (SG) (PI) (PI) (SG) (SG) (PI)
                 (PI) (SG) (SG) (SG) (DLTA) (DLTA) (PI) (PI) (PI)
                 (PI) (SG) (DLTA) (DLTA) (PI) (PI) (SG) (PI) (PI)
                 (SG) (SG) (PI) (PI) (SG) (SG) (SG) (DLTA) (DLTA)
                 (PI) (PI) (SG) (PI) (PI) (DLTA) (DLTA) (SG) (DLTA)
                 (DLTA) (PI) (PI) (SG) (PI) (PI) (PI) (PI) (SG)
                 (SG) (PI) (PI) (SG) (SG) (PI) (PI) (DLTA) (DLTA)
                 (SG) (SG) (PHI) (PHI) (PHI) (PHI) (SG) (PHI) (PHI)
                 (DLTA) (DLTA) (SG) (PI) (PI) (DLTA) (DLTA) (DLTA)
                 (DLTA) (SG) (PI) (PI) (DLTA) (DLTA) (PI) (PI)
                 (SG) (DLTA) (DLTA) (PI) (PI) (PI) (PI) (SG) (PI)
                 (PI) (SG) (PI) (PI) (PI) (PI) (SG) (SG) (SG) (SG)
                 (PI) (PI) (DLTA) (DLTA) (SG) (PHI) (PHI) (?A)
                 (?A) (?A) (?A) (PHI) (PHI) (DLTA) (DLTA) (PI)
                 (PI) (SG) (DLTA) (DLTA) (PHI) (PHI) (PHI) (PHI)
                 (PI) (PI) (DLTA) (DLTA) (SG) (SG) (PI) (PI) (SG)
                 (DLTA) (DLTA) (DLTA) (DLTA) (PI) (PI) (PI) (PI)
                 (SG) (SG) (SG) (SG) (SG) (SG) (SG)
 The electronic state is 2-SG.
 Alpha  occ. eigenvalues --  -25.33707 -25.31387  -1.45390  -1.25501  -0.67793
 Alpha  occ. eigenvalues --   -0.61666  -0.61666  -0.50556  -0.50556  -0.39402
 Alpha virt. eigenvalues --   -0.09039   0.05051   0.06487   0.06487   0.09900
 Alpha virt. eigenvalues --    0.10459   0.10459   0.13817   0.21186   0.21186
 Alpha virt. eigenvalues --    0.21191   0.27925   0.37599   0.39708   0.39709
 Alpha virt. eigenvalues --    0.46567   0.46567   0.50494   0.50494   0.53468
 Alpha virt. eigenvalues --    0.55261   0.55262   0.57382   0.57382   0.66436
 Alpha virt. eigenvalues --    0.72116   0.72967   0.72967   0.87259   0.95249
 Alpha virt. eigenvalues --    0.95249   0.96501   1.11275   1.38360   1.53093
 Alpha virt. eigenvalues --    1.53093   1.60053   1.60062   1.63852   1.71540
 Alpha virt. eigenvalues --    1.71540   1.71972   1.78030   1.78039   1.81496
 Alpha virt. eigenvalues --    1.81496   1.85321   1.89603   1.89612   2.07249
 Alpha virt. eigenvalues --    2.13179   2.13179   2.34301   2.34301   2.50983
 Alpha virt. eigenvalues --    2.50983   2.65582   2.95254   3.29915   3.86221
 Alpha virt. eigenvalues --    3.86222   3.88147   3.93894   3.93894   4.11333
 Alpha virt. eigenvalues --    4.11333   4.22652   4.22652   4.22972   4.44173
 Alpha virt. eigenvalues --    4.51535   4.51537   4.83567   4.94033   4.94033
 Alpha virt. eigenvalues --    5.16543   5.16544   5.29233   5.29236   5.30085
 Alpha virt. eigenvalues --    5.30085   5.45346   5.59108   5.59108   5.61268
 Alpha virt. eigenvalues --    5.61275   5.76466   5.76466   5.99232   5.99232
 Alpha virt. eigenvalues --    5.99274   6.30510   6.31847   6.31847   6.45449
 Alpha virt. eigenvalues --    6.45449   6.54699   6.93515   7.12790   7.17730
 Alpha virt. eigenvalues --    7.17730   7.42398   7.42404   7.69128   7.69128
 Alpha virt. eigenvalues --    7.79251   8.39329  10.98396  10.98396  11.13949
 Alpha virt. eigenvalues --   11.13951  11.18958  11.27049  11.27049  11.30888
 Alpha virt. eigenvalues --   11.30899  11.32921  11.32921  11.33309  11.33321
 Alpha virt. eigenvalues --   11.47912  11.47913  11.96046  11.96046  12.38009
 Alpha virt. eigenvalues --   14.26391  14.26395  14.36610  14.36610  14.42660
 Alpha virt. eigenvalues --   14.42660  14.43701  14.43701  14.62041  14.62047
 Alpha virt. eigenvalues --   14.88191  14.91827  15.31529  15.31529  15.39339
 Alpha virt. eigenvalues --   15.75415  15.75418  15.82690  15.82693  15.84900
 Alpha virt. eigenvalues --   15.84900  16.00271  16.00271  16.25254  16.64347
 Alpha virt. eigenvalues --   16.91058  54.01719  54.81665 282.80178 283.80039
  Beta  occ. eigenvalues --  -25.33832 -25.30444  -1.44114  -1.23889  -0.64303
  Beta  occ. eigenvalues --   -0.61322  -0.61322  -0.49572  -0.49572
  Beta virt. eigenvalues --   -0.17371  -0.05854   0.06332   0.06332   0.07043
  Beta virt. eigenvalues --    0.10400   0.10400   0.10544   0.17145   0.18482
  Beta virt. eigenvalues --    0.18482   0.25964   0.32167   0.36577   0.38991
  Beta virt. eigenvalues --    0.38991   0.47020   0.47020   0.50005   0.50005
  Beta virt. eigenvalues --    0.52715   0.53548   0.53549   0.56690   0.56690
  Beta virt. eigenvalues --    0.58062   0.59921   0.59921   0.70831   0.82411
  Beta virt. eigenvalues --    0.85219   0.85219   0.90257   1.02252   1.23874
  Beta virt. eigenvalues --    1.34247   1.34247   1.52483   1.52483   1.55267
  Beta virt. eigenvalues --    1.59897   1.59897   1.59939   1.59948   1.65008
  Beta virt. eigenvalues --    1.78022   1.78031   1.81996   1.81996   1.83422
  Beta virt. eigenvalues --    1.85383   1.85383   1.95372   1.95372   2.08224
  Beta virt. eigenvalues --    2.21312   2.26427   2.26427   2.61615   3.11211
  Beta virt. eigenvalues --    3.80714   3.80714   3.83087   3.83088   3.86427
  Beta virt. eigenvalues --    3.91567   4.06092   4.06092   4.11679   4.11679
  Beta virt. eigenvalues --    4.22215   4.22713   4.22713   4.26486   4.26486
  Beta virt. eigenvalues --    4.44616   4.53249   4.53249   4.58039   4.58040
  Beta virt. eigenvalues --    5.18203   5.18204   5.20190   5.23477   5.23477
  Beta virt. eigenvalues --    5.29650   5.29653   5.39456   5.39456   5.47043
  Beta virt. eigenvalues --    5.57593   5.57604   5.60021   5.60021   5.76907
  Beta virt. eigenvalues --    5.76907   5.88071   6.22508   6.22508   6.29358
  Beta virt. eigenvalues --    6.33250   6.33250   6.46088   6.46088   6.62194
  Beta virt. eigenvalues --    6.75871   7.08320   7.30171  10.98127  10.98127
  Beta virt. eigenvalues --   11.14045  11.14047  11.18911  11.26716  11.26716
  Beta virt. eigenvalues --   11.31037  11.31049  11.32930  11.32941  11.34243
  Beta virt. eigenvalues --   11.34243  11.48711  11.48713  11.95235  11.95235
  Beta virt. eigenvalues --   12.33734  14.28083  14.28087  14.36834  14.36834
  Beta virt. eigenvalues --   14.43424  14.43424  14.46546  14.46546  14.64609
  Beta virt. eigenvalues --   14.64613  14.90244  15.01386  15.33007  15.33007
  Beta virt. eigenvalues --   15.33802  15.75925  15.75928  15.84430  15.84433
  Beta virt. eigenvalues --   15.89075  15.89075  16.01380  16.01380  16.37667
  Beta virt. eigenvalues --   16.58092  16.91725  54.02386  54.82723 282.79958
  Beta virt. eigenvalues --  283.79743
          Condensed to atoms (all electrons):
               1          2          3
     1  H    0.788474   0.028318   0.016796
     2  F    0.028318   9.132820  -0.075979
     3  F    0.016796  -0.075979   9.140434
          Atomic-Atomic Spin Densities.
               1          2          3
     1  H    0.774908  -0.015266   0.017713
     2  F   -0.015266  -0.050632  -0.094463
     3  F    0.017713  -0.094463   0.459755
 Mulliken charges and spin densities:
               1          2
     1  H    0.166411   0.777355
     2  F   -0.085160  -0.160361
     3  F   -0.081251   0.383005
 Sum of Mulliken charges =  -0.00000   1.00000
 Mulliken charges and spin densities with hydrogens summed into heavy atoms:
               1          2
     2  F    0.081251   0.616995
     3  F   -0.081251   0.383005
 Electronic spatial extent (au):  <R**2>=             75.6050
 Charge=             -0.0000 electrons
 Dipole moment (field-independent basis, Debye):
    X=              0.0000    Y=              0.0000    Z=             -1.6427  Tot=              1.6427
 Quadrupole moment (field-independent basis, Debye-Ang):
   XX=            -11.0162   YY=            -11.0162   ZZ=             -7.0506
   XY=             -0.0000   XZ=              0.0000   YZ=             -0.0000
 Traceless Quadrupole moment (field-independent basis, Debye-Ang):
   XX=             -1.3219   YY=             -1.3219   ZZ=              2.6437
   XY=             -0.0000   XZ=              0.0000   YZ=             -0.0000
 Octapole moment (field-independent basis, Debye-Ang**2):
  XXX=              0.0000  YYY=              0.0000  ZZZ=             -4.7689  XYY=              0.0000
  XXY=             -0.0000  XXZ=              1.2178  XZZ=              0.0000  YZZ=             -0.0000
  YYZ=              1.2178  XYZ=              0.0000
 Hexadecapole moment (field-independent basis, Debye-Ang**3):
 XXXX=             -7.6791 YYYY=             -7.6791 ZZZZ=            -50.0215 XXXY=              0.0000
 XXXZ=              0.0000 YYYX=              0.0000 YYYZ=             -0.0000 ZZZX=              0.0000
 ZZZY=             -0.0000 XXYY=             -2.5597 XXZZ=            -13.7350 YYZZ=            -13.7350
 XXYZ=             -0.0000 YYXZ=              0.0000 ZZXY=              0.0000
 N-N= 3.344230256578D+01 E-N=-5.452531108313D+02  KE= 1.994766124923D+02
                          Isotropic Fermi Contact Couplings
        Atom                 a.u.       MegaHertz       Gauss      10(-4) cm-1
     1  H(1)               0.27861    1245.37525     444.38086     415.41247
     2  F(19)              0.66305    2789.74370     995.44992     930.55833
     3  F(19)              0.00701      29.49047      10.52293       9.83696
 PrsmSu:  requested number of processors reduced to:  21 ShMem   1 Linda.
 --------------------------------------------------------
       Center         ----  Spin Dipole Couplings  ----
                      3XX-RR        3YY-RR        3ZZ-RR
 --------------------------------------------------------
     1   Atom        0.003330      0.003330     -0.006660
     2   Atom        0.609363      0.609363     -1.218727
     3   Atom       -1.306890     -1.306890      2.613779
 --------------------------------------------------------
                        XY            XZ            YZ
 --------------------------------------------------------
     1   Atom        0.000000      0.000000      0.000000
     2   Atom        0.000000      0.000000      0.000000
     3   Atom        0.000000      0.000000      0.000000
 --------------------------------------------------------


 ---------------------------------------------------------------------------------
              Anisotropic Spin Dipole Couplings in Principal Axis System
 ---------------------------------------------------------------------------------

       Atom             a.u.   MegaHertz   Gauss  10(-4) cm-1        Axes

              Baa    -0.0067    -3.553    -1.268    -1.185  0.0000  0.0000  1.0000
     1 H(1)   Bbb     0.0033     1.777     0.634     0.593  1.0000  0.0000  0.0000
              Bcc     0.0033     1.777     0.634     0.593 -0.0000  1.0000  0.0000
 
              Baa    -1.2187  -612.076  -218.404  -204.166  0.0000  0.0000  1.0000
     2 F(19)  Bbb     0.6094   306.038   109.202   102.083 -0.0000  1.0000  0.0000
              Bcc     0.6094   306.038   109.202   102.083  1.0000  0.0000  0.0000
 
              Baa    -1.3069  -656.353  -234.203  -218.936  1.0000  0.0000  0.0000
     3 F(19)  Bbb    -1.3069  -656.353  -234.203  -218.936 -0.0000  1.0000  0.0000
              Bcc     2.6138  1312.707   468.406   437.872  0.0000  0.0000  1.0000
 

 ---------------------------------------------------------------------------------

 PrsmSu:  requested number of processors reduced to:  21 ShMem   1 Linda.
 No NMR shielding tensors so no spin-rotation constants.
 Leave Link  601 at Sun Apr 18 03:04:37 2021, MaxMem=   104857600 cpu:             230.3 elap:               5.1
 (Enter /s/ls4/users/knvvv/bin/g16sse/l801.exe)
 DoSCS=F DFT=T ScalE2(SS,OS)=  1.000000  1.000000
 Range of M.O.s used for correlation:     1   165
 NBasis=   165 NAE=    10 NBE=     9 NFC=     0 NFV=     0
 NROrb=    165 NOA=    10 NOB=     9 NVA=   155 NVB=   156

 **** Warning!!: The largest alpha MO coefficient is  0.19833317D+02


 **** Warning!!: The largest beta MO coefficient is  0.23279632D+02

 Leave Link  801 at Sun Apr 18 03:04:37 2021, MaxMem=   104857600 cpu:               4.1 elap:               0.1
 (Enter /s/ls4/users/knvvv/bin/g16sse/l914.exe)
 UHF ground state
 Doing stability rather than CIS.
 Two-electron integrals replicated using symmetry.
 MDV=   104857600 DFT=T DoStab=T Mixed=T DoRPA=F DoScal=F NonHer=F
 Making orbital integer symmetry assigments:
 Orbital symmetries:
 Alpha Orbitals:
       Occupied  (SG) (SG) (SG) (SG) (SG) (PI) (PI) (PI) (PI) (SG)
       Virtual   (SG) (SG) (PI) (PI) (SG) (PI) (PI) (SG) (PI) (PI)
                 (SG) (SG) (SG) (DLTA) (DLTA) (PI) (PI) (PI) (PI)
                 (SG) (DLTA) (DLTA) (PI) (PI) (SG) (SG) (PI) (PI)
                 (SG) (PI) (PI) (SG) (SG) (SG) (PI) (PI) (DLTA)
                 (DLTA) (SG) (PI) (PI) (SG) (DLTA) (DLTA) (PI)
                 (PI) (SG) (DLTA) (DLTA) (SG) (PI) (PI) (PI) (PI)
                 (PI) (PI) (SG) (SG) (SG) (DLTA) (DLTA) (SG) (PI)
                 (PI) (PHI) (PHI) (PHI) (PHI) (SG) (SG) (DLTA)
                 (DLTA) (SG) (PI) (PI) (DLTA) (DLTA) (DLTA) (DLTA)
                 (PI) (PI) (SG) (PHI) (PHI) (DLTA) (DLTA) (PI)
                 (PI) (PI) (PI) (SG) (SG) (PI) (PI) (PI) (PI) (SG)
                 (SG) (SG) (PI) (PI) (DLTA) (DLTA) (PI) (PI) (SG)
                 (SG) (PI) (PI) (DLTA) (DLTA) (SG) (PHI) (PHI)
                 (?A) (?A) (PHI) (PHI) (?A) (?A) (DLTA) (DLTA)
                 (PI) (PI) (SG) (DLTA) (DLTA) (PHI) (PHI) (PHI)
                 (PHI) (PI) (PI) (DLTA) (DLTA) (SG) (SG) (PI) (PI)
                 (SG) (DLTA) (DLTA) (DLTA) (DLTA) (PI) (PI) (PI)
                 (PI) (SG) (SG) (SG) (SG) (SG) (SG) (SG)
 Beta  Orbitals:
       Occupied  (SG) (SG) (SG) (SG) (SG) (PI) (PI) (PI) (PI)
       Virtual   (SG) (SG) (PI) (PI) (SG) (PI) (PI) (SG) (SG) (PI)
                 (PI) (SG) (SG) (SG) (DLTA) (DLTA) (PI) (PI) (PI)
                 (PI) (SG) (DLTA) (DLTA) (PI) (PI) (SG) (PI) (PI)
                 (SG) (SG) (PI) (PI) (SG) (SG) (SG) (DLTA) (DLTA)
                 (PI) (PI) (SG) (PI) (PI) (DLTA) (DLTA) (SG) (DLTA)
                 (DLTA) (PI) (PI) (SG) (PI) (PI) (PI) (PI) (SG)
                 (SG) (PI) (PI) (SG) (SG) (PI) (PI) (DLTA) (DLTA)
                 (SG) (SG) (PHI) (PHI) (PHI) (PHI) (SG) (PHI) (PHI)
                 (DLTA) (DLTA) (SG) (PI) (PI) (DLTA) (DLTA) (DLTA)
                 (DLTA) (SG) (PI) (PI) (DLTA) (DLTA) (PI) (PI)
                 (SG) (DLTA) (DLTA) (PI) (PI) (PI) (PI) (SG) (PI)
                 (PI) (SG) (PI) (PI) (PI) (PI) (SG) (SG) (SG) (SG)
                 (PI) (PI) (DLTA) (DLTA) (SG) (PHI) (PHI) (?A)
                 (?A) (?A) (?A) (PHI) (PHI) (DLTA) (DLTA) (PI)
                 (PI) (SG) (DLTA) (DLTA) (PHI) (PHI) (PHI) (PHI)
                 (PI) (PI) (DLTA) (DLTA) (SG) (SG) (PI) (PI) (SG)
                 (DLTA) (DLTA) (DLTA) (DLTA) (PI) (PI) (PI) (PI)
                 (SG) (SG) (SG) (SG) (SG) (SG) (SG)
    12 initial guesses have been made.
 Convergence on wavefunction:    0.001000000000000
 Davidson Disk Diagonalization:  ConvIn= 1.00D-03 SkipCon=T Conv= 1.00D-03.
 Max sub-space:  2000 roots to seek:    12 dimension of matrix:         2954
 Iteration     1 Dimension    12 NMult     0 NNew     12
 Estimated number of processors is:   19
 CISAX will form     1 AO SS matrices at one time.
 NMat=     1 NSing=     1 JSym2X= 2.
 FoFJK:  IHMeth= 1 ICntrl=       0 DoSepK=F KAlg= 0 I1Cent=           0 FoldK=F
 IRaf= 980000000 NMat=       1 IRICut=       1 DoRegI=T DoRafI=F ISym2E= 2 IDoP0=0 IntGTp=1.
 FoFCou: FMM=F IPFlag=           0 FMFlag=      100000 FMFlg1=           0
         NFxFlg=           0 DoJE=F BraDBF=F KetDBF=F FulRan=T
         wScrn=  0.000000 ICntrl=         0 IOpCl=  1 I1Cent=           0 NGrid=           0
         NMat0=    1 NMatS0=      1 NMatT0=    0 NMatD0=    1 NMtDS0=    0 NMtDT0=    0
 Integrals replicated using symmetry in FoFCou.
 CoulSu:  requested number of processors reduced to:  20 ShMem   1 Linda.
 NMat=     1 NSing=     1 JSym2X= 2.
 CoulSu:  requested number of processors reduced to:  20 ShMem   1 Linda.
 NMat=     1 NSing=     1 JSym2X= 2.
 CoulSu:  requested number of processors reduced to:  20 ShMem   1 Linda.
 NMat=     1 NSing=     1 JSym2X= 2.
 CoulSu:  requested number of processors reduced to:  20 ShMem   1 Linda.
 NMat=     1 NSing=     1 JSym2X= 2.
 CoulSu:  requested number of processors reduced to:  20 ShMem   1 Linda.
 NMat=     1 NSing=     1 JSym2X= 2.
 CoulSu:  requested number of processors reduced to:  20 ShMem   1 Linda.
 NMat=     1 NSing=     1 JSym2X= 2.
 CoulSu:  requested number of processors reduced to:  20 ShMem   1 Linda.
 NMat=     1 NSing=     1 JSym2X= 2.
 CoulSu:  requested number of processors reduced to:  20 ShMem   1 Linda.
 NMat=     1 NSing=     1 JSym2X= 2.
 CoulSu:  requested number of processors reduced to:  20 ShMem   1 Linda.
 NMat=     1 NSing=     1 JSym2X= 2.
 CoulSu:  requested number of processors reduced to:  20 ShMem   1 Linda.
 NMat=     1 NSing=     1 JSym2X= 2.
 CoulSu:  requested number of processors reduced to:  20 ShMem   1 Linda.
 NMat=     1 NSing=     1 JSym2X= 2.
 CoulSu:  requested number of processors reduced to:  20 ShMem   1 Linda.
 New state      1 was old state      7
 Excitation Energies [eV] at current iteration:
 Root      1 :     3.011941655671284
 Root      2 :     3.011941655671477
 Root      3 :     5.195283980353036
 Root      4 :     5.195283980353138
 Root      5 :     7.056104951788688
 Root      6 :     7.056104951790102
 Root      7 :     7.460029040079775
 Root      8 :     8.436172829177295
 Root      9 :     8.436172829177483
 Root     10 :    10.114594073203060
 Root     11 :    10.114594073206590
 Root     12 :    10.306125928640320
 Iteration     2 Dimension    24 NMult    12 NNew     12
 Estimated number of processors is:   19
 CISAX will form     1 AO SS matrices at one time.
 NMat=     1 NSing=     1 JSym2X= 2.
 CoulSu:  requested number of processors reduced to:  20 ShMem   1 Linda.
 NMat=     1 NSing=     1 JSym2X= 2.
 CoulSu:  requested number of processors reduced to:  20 ShMem   1 Linda.
 NMat=     1 NSing=     1 JSym2X= 2.
 CoulSu:  requested number of processors reduced to:  20 ShMem   1 Linda.
 NMat=     1 NSing=     1 JSym2X= 2.
 CoulSu:  requested number of processors reduced to:  20 ShMem   1 Linda.
 NMat=     1 NSing=     1 JSym2X= 2.
 CoulSu:  requested number of processors reduced to:  20 ShMem   1 Linda.
 NMat=     1 NSing=     1 JSym2X= 2.
 CoulSu:  requested number of processors reduced to:  20 ShMem   1 Linda.
 NMat=     1 NSing=     1 JSym2X= 2.
 CoulSu:  requested number of processors reduced to:  20 ShMem   1 Linda.
 NMat=     1 NSing=     1 JSym2X= 2.
 CoulSu:  requested number of processors reduced to:  20 ShMem   1 Linda.
 NMat=     1 NSing=     1 JSym2X= 2.
 CoulSu:  requested number of processors reduced to:  20 ShMem   1 Linda.
 NMat=     1 NSing=     1 JSym2X= 2.
 CoulSu:  requested number of processors reduced to:  20 ShMem   1 Linda.
 NMat=     1 NSing=     1 JSym2X= 2.
 CoulSu:  requested number of processors reduced to:  20 ShMem   1 Linda.
 NMat=     1 NSing=     1 JSym2X= 2.
 CoulSu:  requested number of processors reduced to:  20 ShMem   1 Linda.
 Root      1 not converged, maximum delta is    0.292595885485003
 Excitation Energies [eV] at current iteration:
 Root      1 :     2.434343155567801   Change is   -0.577598500103483
 Root      2 :     2.434343155567904   Change is   -0.577598500103573
 Root      3 :     4.583943296143107   Change is   -0.611340684209929
 Root      4 :     4.583943296143234   Change is   -0.611340684209904
 Root      5 :     4.891806010725745   Change is   -2.568223029354030
 Root      6 :     6.563528602711820   Change is   -0.492576349076869
 Root      7 :     6.563528602712291   Change is   -0.492576349077812
 Root      8 :     6.962477845496973   Change is   -1.473694983680510
 Root      9 :     6.962477845497534   Change is   -1.473694983679761
 Root     10 :     9.755149234738171   Change is   -0.359444838468418
 Root     11 :     9.755149234740783   Change is   -0.359444838462279
 Root     12 :    10.047649888379820
 Iteration     3 Dimension    27 NMult    24 NNew      3
 Estimated number of processors is:   19
 CISAX will form     1 AO SS matrices at one time.
 NMat=     1 NSing=     1 JSym2X= 2.
 CoulSu:  requested number of processors reduced to:  20 ShMem   1 Linda.
 NMat=     1 NSing=     1 JSym2X= 2.
 CoulSu:  requested number of processors reduced to:  20 ShMem   1 Linda.
 NMat=     1 NSing=     1 JSym2X= 2.
 CoulSu:  requested number of processors reduced to:  20 ShMem   1 Linda.
 New state      1 was old state      2
 Root      1 not converged, maximum delta is    0.209631431358403
 Excitation Energies [eV] at current iteration:
 Root      1 :     2.425341082985542   Change is   -0.009002072582361
 Root      2 :     2.425378610418308   Change is   -0.008964545149493
 Root      3 :     4.481525507408240   Change is   -0.102417788734866
 Iteration     4 Dimension    30 NMult    27 NNew      3
 Estimated number of processors is:   19
 CISAX will form     1 AO SS matrices at one time.
 NMat=     1 NSing=     1 JSym2X= 2.
 CoulSu:  requested number of processors reduced to:  20 ShMem   1 Linda.
 NMat=     1 NSing=     1 JSym2X= 2.
 CoulSu:  requested number of processors reduced to:  20 ShMem   1 Linda.
 NMat=     1 NSing=     1 JSym2X= 2.
 CoulSu:  requested number of processors reduced to:  20 ShMem   1 Linda.
 Root      1 not converged, maximum delta is    0.001293486081239
 Excitation Energies [eV] at current iteration:
 Root      1 :     2.425033290293026   Change is   -0.000307792692517
 Root      2 :     2.425049110804993   Change is   -0.000329499613315
 Root      3 :     4.458350972502760   Change is   -0.023174534905480
 Iteration     5 Dimension    33 NMult    30 NNew      3
 Estimated number of processors is:   19
 CISAX will form     1 AO SS matrices at one time.
 NMat=     1 NSing=     1 JSym2X= 2.
 CoulSu:  requested number of processors reduced to:  20 ShMem   1 Linda.
 NMat=     1 NSing=     1 JSym2X= 2.
 CoulSu:  requested number of processors reduced to:  20 ShMem   1 Linda.
 NMat=     1 NSing=     1 JSym2X= 2.
 CoulSu:  requested number of processors reduced to:  20 ShMem   1 Linda.
 Root      1 has converged.
 Excitation Energies [eV] at current iteration:
 Root      1 :     2.425013149696083   Change is   -0.000020140596942
 Root      2 :     2.425018183079928   Change is   -0.000030927725066
 Root      3 :     4.455303000874407   Change is   -0.003047971628353
 Convergence achieved on expansion vectors.
 ***********************************************************************
 Stability analysis using <AA,BB:AA,BB> singles matrix:
 ***********************************************************************
 1PDM for each excited state written to RWF  633
 Ground to excited state transition densities written to RWF  633

 Eigenvectors of the stability matrix:
 
 Excited state symmetry could not be determined.
 Eigenvector   1:  2.898-?Sym  Eigenvalue= 0.0891176  <S**2>=1.850
      8A -> 11A       -0.43633
      9A -> 11A        0.14621
      8B -> 10B       -0.40713
      8B -> 11B        0.47130
      9B -> 10B       -0.39269
      9B -> 11B        0.45459
 The wavefunction is stable under the perturbations considered.
 Leave Link  914 at Sun Apr 18 03:06:05 2021, MaxMem=   104857600 cpu:            3491.6 elap:              87.8
 (Enter /s/ls4/users/knvvv/bin/g16sse/l508.exe)
 The wavefunction is already stable.
 Leave Link  508 at Sun Apr 18 03:06:05 2021, MaxMem=   104857600 cpu:               2.2 elap:               0.1
 (Enter /s/ls4/users/knvvv/bin/g16sse/l601.exe)
 Copying SCF densities to generalized density rwf, IOpCl= 1 IROHF=0.

 **********************************************************************

            Population analysis using the SCF density.

 **********************************************************************

 Orbital symmetries:
 Alpha Orbitals:
       Occupied  (SG) (SG) (SG) (SG) (SG) (PI) (PI) (PI) (PI) (SG)
       Virtual   (SG) (SG) (PI) (PI) (SG) (PI) (PI) (SG) (PI) (PI)
                 (SG) (SG) (SG) (DLTA) (DLTA) (PI) (PI) (PI) (PI)
                 (SG) (DLTA) (DLTA) (PI) (PI) (SG) (SG) (PI) (PI)
                 (SG) (PI) (PI) (SG) (SG) (SG) (PI) (PI) (DLTA)
                 (DLTA) (SG) (PI) (PI) (SG) (DLTA) (DLTA) (PI)
                 (PI) (SG) (DLTA) (DLTA) (SG) (PI) (PI) (PI) (PI)
                 (PI) (PI) (SG) (SG) (SG) (DLTA) (DLTA) (SG) (PI)
                 (PI) (PHI) (PHI) (PHI) (PHI) (SG) (SG) (DLTA)
                 (DLTA) (SG) (PI) (PI) (DLTA) (DLTA) (DLTA) (DLTA)
                 (PI) (PI) (SG) (PHI) (PHI) (DLTA) (DLTA) (PI)
                 (PI) (PI) (PI) (SG) (SG) (PI) (PI) (PI) (PI) (SG)
                 (SG) (SG) (PI) (PI) (DLTA) (DLTA) (PI) (PI) (SG)
                 (SG) (PI) (PI) (DLTA) (DLTA) (SG) (PHI) (PHI)
                 (?A) (?A) (PHI) (PHI) (?A) (?A) (DLTA) (DLTA)
                 (PI) (PI) (SG) (DLTA) (DLTA) (PHI) (PHI) (PHI)
                 (PHI) (PI) (PI) (DLTA) (DLTA) (SG) (SG) (PI) (PI)
                 (SG) (DLTA) (DLTA) (DLTA) (DLTA) (PI) (PI) (PI)
                 (PI) (SG) (SG) (SG) (SG) (SG) (SG) (SG)
 Beta  Orbitals:
       Occupied  (SG) (SG) (SG) (SG) (SG) (PI) (PI) (PI) (PI)
       Virtual   (SG) (SG) (PI) (PI) (SG) (PI) (PI) (SG) (SG) (PI)
                 (PI) (SG) (SG) (SG) (DLTA) (DLTA) (PI) (PI) (PI)
                 (PI) (SG) (DLTA) (DLTA) (PI) (PI) (SG) (PI) (PI)
                 (SG) (SG) (PI) (PI) (SG) (SG) (SG) (DLTA) (DLTA)
                 (PI) (PI) (SG) (PI) (PI) (DLTA) (DLTA) (SG) (DLTA)
                 (DLTA) (PI) (PI) (SG) (PI) (PI) (PI) (PI) (SG)
                 (SG) (PI) (PI) (SG) (SG) (PI) (PI) (DLTA) (DLTA)
                 (SG) (SG) (PHI) (PHI) (PHI) (PHI) (SG) (PHI) (PHI)
                 (DLTA) (DLTA) (SG) (PI) (PI) (DLTA) (DLTA) (DLTA)
                 (DLTA) (SG) (PI) (PI) (DLTA) (DLTA) (PI) (PI)
                 (SG) (DLTA) (DLTA) (PI) (PI) (PI) (PI) (SG) (PI)
                 (PI) (SG) (PI) (PI) (PI) (PI) (SG) (SG) (SG) (SG)
                 (PI) (PI) (DLTA) (DLTA) (SG) (PHI) (PHI) (?A)
                 (?A) (?A) (?A) (PHI) (PHI) (DLTA) (DLTA) (PI)
                 (PI) (SG) (DLTA) (DLTA) (PHI) (PHI) (PHI) (PHI)
                 (PI) (PI) (DLTA) (DLTA) (SG) (SG) (PI) (PI) (SG)
                 (DLTA) (DLTA) (DLTA) (DLTA) (PI) (PI) (PI) (PI)
                 (SG) (SG) (SG) (SG) (SG) (SG) (SG)
 The electronic state is 2-SG.
 Alpha  occ. eigenvalues --  -25.33707 -25.31387  -1.45390  -1.25501  -0.67793
 Alpha  occ. eigenvalues --   -0.61666  -0.61666  -0.50556  -0.50556  -0.39402
 Alpha virt. eigenvalues --   -0.09039   0.05051   0.06487   0.06487   0.09900
 Alpha virt. eigenvalues --    0.10459   0.10459   0.13817   0.21186   0.21186
 Alpha virt. eigenvalues --    0.21191   0.27925   0.37599   0.39708   0.39709
 Alpha virt. eigenvalues --    0.46567   0.46567   0.50494   0.50494   0.53468
 Alpha virt. eigenvalues --    0.55261   0.55262   0.57382   0.57382   0.66436
 Alpha virt. eigenvalues --    0.72116   0.72967   0.72967   0.87259   0.95249
 Alpha virt. eigenvalues --    0.95249   0.96501   1.11275   1.38360   1.53093
 Alpha virt. eigenvalues --    1.53093   1.60053   1.60062   1.63852   1.71540
 Alpha virt. eigenvalues --    1.71540   1.71972   1.78030   1.78039   1.81496
 Alpha virt. eigenvalues --    1.81496   1.85321   1.89603   1.89612   2.07249
 Alpha virt. eigenvalues --    2.13179   2.13179   2.34301   2.34301   2.50983
 Alpha virt. eigenvalues --    2.50983   2.65582   2.95254   3.29915   3.86221
 Alpha virt. eigenvalues --    3.86222   3.88147   3.93894   3.93894   4.11333
 Alpha virt. eigenvalues --    4.11333   4.22652   4.22652   4.22972   4.44173
 Alpha virt. eigenvalues --    4.51535   4.51537   4.83567   4.94033   4.94033
 Alpha virt. eigenvalues --    5.16543   5.16544   5.29233   5.29236   5.30085
 Alpha virt. eigenvalues --    5.30085   5.45346   5.59108   5.59108   5.61268
 Alpha virt. eigenvalues --    5.61275   5.76466   5.76466   5.99232   5.99232
 Alpha virt. eigenvalues --    5.99274   6.30510   6.31847   6.31847   6.45449
 Alpha virt. eigenvalues --    6.45449   6.54699   6.93515   7.12790   7.17730
 Alpha virt. eigenvalues --    7.17730   7.42398   7.42404   7.69128   7.69128
 Alpha virt. eigenvalues --    7.79251   8.39329  10.98396  10.98396  11.13949
 Alpha virt. eigenvalues --   11.13951  11.18958  11.27049  11.27049  11.30888
 Alpha virt. eigenvalues --   11.30899  11.32921  11.32921  11.33309  11.33321
 Alpha virt. eigenvalues --   11.47912  11.47913  11.96046  11.96046  12.38009
 Alpha virt. eigenvalues --   14.26391  14.26395  14.36610  14.36610  14.42660
 Alpha virt. eigenvalues --   14.42660  14.43701  14.43701  14.62041  14.62047
 Alpha virt. eigenvalues --   14.88191  14.91827  15.31529  15.31529  15.39339
 Alpha virt. eigenvalues --   15.75415  15.75418  15.82690  15.82693  15.84900
 Alpha virt. eigenvalues --   15.84900  16.00271  16.00271  16.25254  16.64347
 Alpha virt. eigenvalues --   16.91058  54.01719  54.81665 282.80178 283.80039
  Beta  occ. eigenvalues --  -25.33832 -25.30444  -1.44114  -1.23889  -0.64303
  Beta  occ. eigenvalues --   -0.61322  -0.61322  -0.49572  -0.49572
  Beta virt. eigenvalues --   -0.17371  -0.05854   0.06332   0.06332   0.07043
  Beta virt. eigenvalues --    0.10400   0.10400   0.10544   0.17145   0.18482
  Beta virt. eigenvalues --    0.18482   0.25964   0.32167   0.36577   0.38991
  Beta virt. eigenvalues --    0.38991   0.47020   0.47020   0.50005   0.50005
  Beta virt. eigenvalues --    0.52715   0.53548   0.53549   0.56690   0.56690
  Beta virt. eigenvalues --    0.58062   0.59921   0.59921   0.70831   0.82411
  Beta virt. eigenvalues --    0.85219   0.85219   0.90257   1.02252   1.23874
  Beta virt. eigenvalues --    1.34247   1.34247   1.52483   1.52483   1.55267
  Beta virt. eigenvalues --    1.59897   1.59897   1.59939   1.59948   1.65008
  Beta virt. eigenvalues --    1.78022   1.78031   1.81996   1.81996   1.83422
  Beta virt. eigenvalues --    1.85383   1.85383   1.95372   1.95372   2.08224
  Beta virt. eigenvalues --    2.21312   2.26427   2.26427   2.61615   3.11211
  Beta virt. eigenvalues --    3.80714   3.80714   3.83087   3.83088   3.86427
  Beta virt. eigenvalues --    3.91567   4.06092   4.06092   4.11679   4.11679
  Beta virt. eigenvalues --    4.22215   4.22713   4.22713   4.26486   4.26486
  Beta virt. eigenvalues --    4.44616   4.53249   4.53249   4.58039   4.58040
  Beta virt. eigenvalues --    5.18203   5.18204   5.20190   5.23477   5.23477
  Beta virt. eigenvalues --    5.29650   5.29653   5.39456   5.39456   5.47043
  Beta virt. eigenvalues --    5.57593   5.57604   5.60021   5.60021   5.76907
  Beta virt. eigenvalues --    5.76907   5.88071   6.22508   6.22508   6.29358
  Beta virt. eigenvalues --    6.33250   6.33250   6.46088   6.46088   6.62194
  Beta virt. eigenvalues --    6.75871   7.08320   7.30171  10.98127  10.98127
  Beta virt. eigenvalues --   11.14045  11.14047  11.18911  11.26716  11.26716
  Beta virt. eigenvalues --   11.31037  11.31049  11.32930  11.32941  11.34243
  Beta virt. eigenvalues --   11.34243  11.48711  11.48713  11.95235  11.95235
  Beta virt. eigenvalues --   12.33734  14.28083  14.28087  14.36834  14.36834
  Beta virt. eigenvalues --   14.43424  14.43424  14.46546  14.46546  14.64609
  Beta virt. eigenvalues --   14.64613  14.90244  15.01386  15.33007  15.33007
  Beta virt. eigenvalues --   15.33802  15.75925  15.75928  15.84430  15.84433
  Beta virt. eigenvalues --   15.89075  15.89075  16.01380  16.01380  16.37667
  Beta virt. eigenvalues --   16.58092  16.91725  54.02386  54.82723 282.79958
  Beta virt. eigenvalues --  283.79743
          Condensed to atoms (all electrons):
               1          2          3
     1  H    0.788474   0.028318   0.016796
     2  F    0.028318   9.132820  -0.075979
     3  F    0.016796  -0.075979   9.140434
          Atomic-Atomic Spin Densities.
               1          2          3
     1  H    0.774908  -0.015266   0.017713
     2  F   -0.015266  -0.050632  -0.094463
     3  F    0.017713  -0.094463   0.459755
 Mulliken charges and spin densities:
               1          2
     1  H    0.166411   0.777355
     2  F   -0.085160  -0.160361
     3  F   -0.081251   0.383005
 Sum of Mulliken charges =  -0.00000   1.00000
 Mulliken charges and spin densities with hydrogens summed into heavy atoms:
               1          2
     2  F    0.081251   0.616995
     3  F   -0.081251   0.383005
 Electronic spatial extent (au):  <R**2>=             75.6050
 Charge=             -0.0000 electrons
 Dipole moment (field-independent basis, Debye):
    X=              0.0000    Y=              0.0000    Z=             -1.6427  Tot=              1.6427
 Quadrupole moment (field-independent basis, Debye-Ang):
   XX=            -11.0162   YY=            -11.0162   ZZ=             -7.0506
   XY=             -0.0000   XZ=              0.0000   YZ=             -0.0000
 Traceless Quadrupole moment (field-independent basis, Debye-Ang):
   XX=             -1.3219   YY=             -1.3219   ZZ=              2.6437
   XY=             -0.0000   XZ=              0.0000   YZ=             -0.0000
 Octapole moment (field-independent basis, Debye-Ang**2):
  XXX=              0.0000  YYY=              0.0000  ZZZ=             -4.7689  XYY=              0.0000
  XXY=             -0.0000  XXZ=              1.2178  XZZ=              0.0000  YZZ=             -0.0000
  YYZ=              1.2178  XYZ=              0.0000
 Hexadecapole moment (field-independent basis, Debye-Ang**3):
 XXXX=             -7.6791 YYYY=             -7.6791 ZZZZ=            -50.0215 XXXY=              0.0000
 XXXZ=              0.0000 YYYX=              0.0000 YYYZ=             -0.0000 ZZZX=              0.0000
 ZZZY=             -0.0000 XXYY=             -2.5597 XXZZ=            -13.7350 YYZZ=            -13.7350
 XXYZ=             -0.0000 YYXZ=              0.0000 ZZXY=              0.0000
 N-N= 3.344230256578D+01 E-N=-5.452531108313D+02  KE= 1.994766124923D+02
                          Isotropic Fermi Contact Couplings
        Atom                 a.u.       MegaHertz       Gauss      10(-4) cm-1
     1  H(1)               0.27861    1245.37525     444.38086     415.41247
     2  F(19)              0.66305    2789.74370     995.44992     930.55833
     3  F(19)              0.00701      29.49047      10.52293       9.83696
 PrsmSu:  requested number of processors reduced to:  21 ShMem   1 Linda.
 --------------------------------------------------------
       Center         ----  Spin Dipole Couplings  ----
                      3XX-RR        3YY-RR        3ZZ-RR
 --------------------------------------------------------
     1   Atom        0.003330      0.003330     -0.006660
     2   Atom        0.609363      0.609363     -1.218727
     3   Atom       -1.306890     -1.306890      2.613779
 --------------------------------------------------------
                        XY            XZ            YZ
 --------------------------------------------------------
     1   Atom        0.000000      0.000000      0.000000
     2   Atom        0.000000      0.000000      0.000000
     3   Atom        0.000000      0.000000      0.000000
 --------------------------------------------------------


 ---------------------------------------------------------------------------------
              Anisotropic Spin Dipole Couplings in Principal Axis System
 ---------------------------------------------------------------------------------

       Atom             a.u.   MegaHertz   Gauss  10(-4) cm-1        Axes

              Baa    -0.0067    -3.553    -1.268    -1.185  0.0000  0.0000  1.0000
     1 H(1)   Bbb     0.0033     1.777     0.634     0.593  1.0000  0.0000  0.0000
              Bcc     0.0033     1.777     0.634     0.593 -0.0000  1.0000  0.0000
 
              Baa    -1.2187  -612.076  -218.404  -204.166  0.0000  0.0000  1.0000
     2 F(19)  Bbb     0.6094   306.038   109.202   102.083 -0.0000  1.0000  0.0000
              Bcc     0.6094   306.038   109.202   102.083  1.0000  0.0000  0.0000
 
              Baa    -1.3069  -656.353  -234.203  -218.936  1.0000  0.0000  0.0000
     3 F(19)  Bbb    -1.3069  -656.353  -234.203  -218.936 -0.0000  1.0000  0.0000
              Bcc     2.6138  1312.707   468.406   437.872  0.0000  0.0000  1.0000
 

 ---------------------------------------------------------------------------------

 PrsmSu:  requested number of processors reduced to:  21 ShMem   1 Linda.
 No NMR shielding tensors so no spin-rotation constants.
 Leave Link  601 at Sun Apr 18 03:06:10 2021, MaxMem=   104857600 cpu:             206.9 elap:               4.6
 (Enter /s/ls4/users/knvvv/bin/g16sse/l9999.exe)

 Test job not archived.
 1\1\GINC-N178\Stability\UM062X\Gen\F2H1(2)\KNVVV\18-Apr-2021\0\\#P M06
 2X/GEN Integral=UltraFineGrid SCF=NoSymm Stable=(RExt, Opt) IOp(1/33=1
 )\\Database calculations.\\0,2\H,0,0.,0.,-2.2312757093\F,0,0.,0.,-0.61
 62162784\F,0,0.,0.,0.8641358017\\Version=ES64L-G16RevA.03\State=2-SG\H
 F=-200.0305694\S2=0.794737\S2-1=0.\S2A=0.750044\RMSD=4.553e-09\Dipole=
 0.,0.,-0.6462872\Quadrupole=-0.9827804,-0.9827804,1.9655608,0.,0.,0.\P
 G=C*V [C*(H1F1F1)]\\@


 HONESTY IN A LAWYER IS LIKE A HEN'S HIND LEGS.
  -- MAGNUS OLESON, LAKE WOBEGON PATRIARCH, C.1875
 Job cpu time:       0 days  1 hours 30 minutes  0.1 seconds.
 Elapsed time:       0 days  0 hours  2 minutes 14.9 seconds.
 File lengths (MBytes):  RWF=    103 Int=      0 D2E=      0 Chk=      5 Scr=      1
 Normal termination of Gaussian 16 at Sun Apr 18 03:06:10 2021.
