 Entering Gaussian System, Link 0=/s/ls4/users/knvvv/bin/g16sse/g16
 Input=data/database/M062X--def2-QZVP--BH76_RKT17.gjf
 Output=data/database/M062X--def2-QZVP--BH76_RKT17.log
 Initial command:
 /s/ls4/users/knvvv/bin/g16sse/l1.exe "/s/ls4/users/knvvv/bin/scratch/Gau-48221.inp" -scrdir="/s/ls4/users/knvvv/bin/scratch/"
 Entering Link 1 = /s/ls4/users/knvvv/bin/g16sse/l1.exe PID=     48222.
  
 Copyright (c) 1988,1990,1992,1993,1995,1998,2003,2009,2016,
            Gaussian, Inc.  All Rights Reserved.
  
 This is part of the Gaussian(R) 16 program.  It is based on
 the Gaussian(R) 09 system (copyright 2009, Gaussian, Inc.),
 the Gaussian(R) 03 system (copyright 2003, Gaussian, Inc.),
 the Gaussian(R) 98 system (copyright 1998, Gaussian, Inc.),
 the Gaussian(R) 94 system (copyright 1995, Gaussian, Inc.),
 the Gaussian 92(TM) system (copyright 1992, Gaussian, Inc.),
 the Gaussian 90(TM) system (copyright 1990, Gaussian, Inc.),
 the Gaussian 88(TM) system (copyright 1988, Gaussian, Inc.),
 the Gaussian 86(TM) system (copyright 1986, Carnegie Mellon
 University), and the Gaussian 82(TM) system (copyright 1983,
 Carnegie Mellon University). Gaussian is a federally registered
 trademark of Gaussian, Inc.
  
 This software contains proprietary and confidential information,
 including trade secrets, belonging to Gaussian, Inc.
  
 This software is provided under written license and may be
 used, copied, transmitted, or stored only in accord with that
 written license.
  
 The following legend is applicable only to US Government
 contracts under FAR:
  
                    RESTRICTED RIGHTS LEGEND
  
 Use, reproduction and disclosure by the US Government is
 subject to restrictions as set forth in subparagraphs (a)
 and (c) of the Commercial Computer Software - Restricted
 Rights clause in FAR 52.227-19.
  
 Gaussian, Inc.
 340 Quinnipiac St., Bldg. 40, Wallingford CT 06492
  
  
 ---------------------------------------------------------------
 Warning -- This program may not be used in any manner that
 competes with the business of Gaussian, Inc. or will provide
 assistance to any competitor of Gaussian, Inc.  The licensee
 of this program is prohibited from giving any competitor of
 Gaussian, Inc. access to this program.  By using this program,
 the user acknowledges that Gaussian, Inc. is engaged in the
 business of creating and licensing software in the field of
 computational chemistry and represents and warrants to the
 licensee that it is not a competitor of Gaussian, Inc. and that
 it will not use this program in any manner prohibited above.
 ---------------------------------------------------------------
  

 Cite this work as:
 Gaussian 16, Revision A.03,
 M. J. Frisch, G. W. Trucks, H. B. Schlegel, G. E. Scuseria, 
 M. A. Robb, J. R. Cheeseman, G. Scalmani, V. Barone, 
 G. A. Petersson, H. Nakatsuji, X. Li, M. Caricato, A. V. Marenich, 
 J. Bloino, B. G. Janesko, R. Gomperts, B. Mennucci, H. P. Hratchian, 
 J. V. Ortiz, A. F. Izmaylov, J. L. Sonnenberg, D. Williams-Young, 
 F. Ding, F. Lipparini, F. Egidi, J. Goings, B. Peng, A. Petrone, 
 T. Henderson, D. Ranasinghe, V. G. Zakrzewski, J. Gao, N. Rega, 
 G. Zheng, W. Liang, M. Hada, M. Ehara, K. Toyota, R. Fukuda, 
 J. Hasegawa, M. Ishida, T. Nakajima, Y. Honda, O. Kitao, H. Nakai, 
 T. Vreven, K. Throssell, J. A. Montgomery, Jr., J. E. Peralta, 
 F. Ogliaro, M. J. Bearpark, J. J. Heyd, E. N. Brothers, K. N. Kudin, 
 V. N. Staroverov, T. A. Keith, R. Kobayashi, J. Normand, 
 K. Raghavachari, A. P. Rendell, J. C. Burant, S. S. Iyengar, 
 J. Tomasi, M. Cossi, J. M. Millam, M. Klene, C. Adamo, R. Cammi, 
 J. W. Ochterski, R. L. Martin, K. Morokuma, O. Farkas, 
 J. B. Foresman, and D. J. Fox, Gaussian, Inc., Wallingford CT, 2016.
 
 ******************************************
 Gaussian 16:  ES64L-G16RevA.03 25-Dec-2016
                16-Apr-2021 
 ******************************************
 %RWF=temp6_38773,70GB
 %nprocshared=48
 Will use up to   48 processors via shared memory.
 Default route: MaxDisk=80GB
 ----------------------------------------------------------------------
 #P M062X/Def2QZVP Integral=UltraFineGrid SCF=NoSymm Stable=(RExt, Opt)
  IOp(1/33=1)
 ----------------------------------------------------------------------
 1/33=1,38=1,172=1/1;
 2/12=2,17=6,18=5,40=1/2;
 3/5=45,7=101,11=2,25=1,30=1,74=-55,75=-5/1,2,3;
 4/9=2/1;
 5/5=2,38=5/2;
 6/7=2,8=2,9=2,10=2,28=1/1;
 8/6=1,10=90,11=11/1;
 9/8=-3,42=1,46=1/14;
 5/5=2,8=3,17=40,38=5/8(-2);
 6/7=2,8=2,9=2,10=2,28=1/1;
 99/5=1,9=1/99;
 Leave Link    1 at Fri Apr 16 23:08:52 2021, MaxMem=           0 cpu:               8.3 elap:               0.2
 (Enter /s/ls4/users/knvvv/bin/g16sse/l101.exe)
 ONIOM data not found on unit 2.
 ----------------------
 Database calculations.
 ----------------------
 TstMul:  ICh=     0
 TstMul:  Mul=     3
 TstMul:  ICh=     0
 TstMul:  Mul=     3
 Symbolic Z-matrix:
 Charge =  0 Multiplicity = 3
 CL                    0.01882  -0.8173    0. 
 H                    -0.47049   0.56948   0. 
 O                     0.01882   1.66558   0. 
 
 RdStrC is calling ZToCFu for IStruc=1 NZ=     3.
 PrtBox:  NBox=     1 Levels=  1 BoxLen=    8.00 SMaxX=        4.69
          Shift=            0.889094            1.544480            0.000000
 Box      1 Number                   0 centers from      1 to      3:
 After GenITR:
 ITRead=  0  0  0
 MicOpt= -1 -1 -1
 ITRead=  0  0  0
 MicOpt= -1 -1 -1
 NAtoms=      3 NQM=        3 NQMF=       0 NMMI=      0 NMMIF=      0
                NMic=       0 NMicF=      0.
                    Isotopes and Nuclear Properties:
 (Nuclear quadrupole moments (NQMom) in fm**2, nuclear magnetic moments (NMagM)
  in nuclear magnetons)

  Atom         1           2           3
 IAtWgt=          35           1          16
 AtmWgt=  34.9688527   1.0078250  15.9949146
 NucSpn=           3           1           0
 AtZEff=  -0.0000000  -0.0000000  -0.0000000
 NQMom=   -8.1650000   0.0000000   0.0000000
 NMagM=    0.8218740   2.7928460   0.0000000
 AtZNuc=  17.0000000   1.0000000   8.0000000
 No MM parameters found.
 Leave Link  101 at Fri Apr 16 23:08:52 2021, MaxMem=   104857600 cpu:               6.5 elap:               0.2
 (Enter /s/ls4/users/knvvv/bin/g16sse/l202.exe)
                          Input orientation:                          
 ---------------------------------------------------------------------
 Center     Atomic      Atomic             Coordinates (Angstroms)
 Number     Number       Type             X           Y           Z
 ---------------------------------------------------------------------
      1         17           0        0.018820   -0.817304    0.000000
      2          1           0       -0.470488    0.569479    0.000000
      3          8           0        0.018820    1.665580    0.000000
 ---------------------------------------------------------------------
                    Distance matrix (angstroms):
                    1          2          3
     1  Cl   0.000000
     2  H    1.470575   0.000000
     3  O    2.482884   1.200358   0.000000
 Stoichiometry    ClHO(3)
 Framework group  CS[SG(ClHO)]
 Deg. of freedom     3
 Full point group                 CS      NOp   2
 Largest Abelian subgroup         CS      NOp   2
 Largest concise Abelian subgroup C1      NOp   1
                         Standard orientation:                         
 ---------------------------------------------------------------------
 Center     Atomic      Atomic             Coordinates (Angstroms)
 Number     Number       Type             X           Y           Z
 ---------------------------------------------------------------------
      1         17           0        0.018820   -0.817302    0.000000
      2          1           0       -0.470489    0.569481    0.000000
      3          8           0        0.018820    1.665582    0.000000
 ---------------------------------------------------------------------
 Rotational constants (GHZ):        2147.4082913           7.4294953           7.4038797
 Leave Link  202 at Fri Apr 16 23:08:52 2021, MaxMem=   104857600 cpu:               7.9 elap:               0.2
 (Enter /s/ls4/users/knvvv/bin/g16sse/l301.exe)
 Standard basis: def2QZVP (5D, 7F)
 Ernie: Thresh=  0.10000D-02 Tol=  0.10000D-05 Strict=F.
 There are   130 symmetry adapted cartesian basis functions of A'  symmetry.
 There are    63 symmetry adapted cartesian basis functions of A"  symmetry.
 There are   103 symmetry adapted basis functions of A'  symmetry.
 There are    54 symmetry adapted basis functions of A"  symmetry.
   157 basis functions,   251 primitive gaussians,   193 cartesian basis functions
    14 alpha electrons       12 beta electrons
       nuclear repulsion energy        38.6298311691 Hartrees.
 IExCor= 4336 DFT=T Ex+Corr=M062X ExCW=0 ScaHFX=  0.540000
 ScaDFX=  1.000000  1.000000  1.000000  1.000000 ScalE2=  1.000000  1.000000
 IRadAn=      5 IRanWt=     -1 IRanGd=            0 ICorTp=0 IEmpDi=  4
 NAtoms=    3 NActive=    3 NUniq=    3 SFac= 1.00D+00 NAtFMM=   60 NAOKFM=F Big=F
 Integral buffers will be    131072 words long.
 Raffenetti 2 integral format.
 Two-electron integral symmetry is turned on.
 Leave Link  301 at Fri Apr 16 23:08:52 2021, MaxMem=   104857600 cpu:               6.4 elap:               0.2
 (Enter /s/ls4/users/knvvv/bin/g16sse/l302.exe)
 NPDir=0 NMtPBC=     1 NCelOv=     1 NCel=       1 NClECP=     1 NCelD=      1
         NCelK=      1 NCelE2=     1 NClLst=     1 CellRange=     0.0.
 One-electron integrals computed using PRISM.
 One-electron integral symmetry used in STVInt
 PrsmSu:  requested number of processors reduced to:   4 ShMem   1 Linda.
 PrsmSu:  requested number of processors reduced to:  21 ShMem   1 Linda.
   2 Symmetry operations used in ECPInt.
 ECPInt:  NShTT=    1225 NPrTT=    3608 LenC2=    1198 LenP2D=    3095.
 LDataN:  DoStor=T MaxTD1= 8 Len=  415
 Number of processors reduced to  36 by ecpmxn.
 NBasis=   157 RedAO= T EigKep=  7.36D-04  NBF=   103    54
 NBsUse=   157 1.00D-06 EigRej= -1.00D+00 NBFU=   103    54
 Precomputing XC quadrature grid using
 IXCGrd= 4 IRadAn=           5 IRanWt=          -1 IRanGd=           0 AccXCQ= 0.00D+00.
 Generated NRdTot=       0 NPtTot=           0 NUsed=           0 NTot=          32
 NSgBfM=   193   193   193   193   193 MxSgAt=     3 MxSgA2=     3.
 Leave Link  302 at Fri Apr 16 23:08:58 2021, MaxMem=   104857600 cpu:             240.7 elap:               5.2
 (Enter /s/ls4/users/knvvv/bin/g16sse/l303.exe)
 DipDrv:  MaxL=1.
 Leave Link  303 at Fri Apr 16 23:08:58 2021, MaxMem=   104857600 cpu:              31.0 elap:               0.7
 (Enter /s/ls4/users/knvvv/bin/g16sse/l401.exe)
 SCF N**3 symmetry information disabled.
 ExpMin= 8.03D-02 ExpMax= 1.47D+06 ExpMxC= 1.67D+03 IAcc=3 IRadAn=         5 AccDes= 0.00D+00
 Harris functional with IExCor= 1009 and IRadAn=       5 diagonalized for initial guess.
 HarFok:  IExCor= 1009 AccDes= 0.00D+00 IRadAn=         5 IDoV= 1 UseB2=F ITyADJ=14
 ICtDFT=  3500011 ScaDFX=  1.000000  1.000000  1.000000  1.000000
 FoFCou: FMM=F IPFlag=           0 FMFlag=      100000 FMFlg1=           0
         NFxFlg=           0 DoJE=T BraDBF=F KetDBF=T FulRan=T
         wScrn=  0.000000 ICntrl=       500 IOpCl=  0 I1Cent=   200000004 NGrid=           0
         NMat0=    1 NMatS0=      1 NMatT0=    0 NMatD0=    1 NMtDS0=    0 NMtDT0=    0
 Petite list used in FoFCou.
 CoulSu:  requested number of processors reduced to:  21 ShMem   1 Linda.
 CoulSu:  requested number of processors reduced to:  21 ShMem   1 Linda.
 CoulSu:  requested number of processors reduced to:  21 ShMem   1 Linda.
 CoulSu:  requested number of processors reduced to:  21 ShMem   1 Linda.
 Harris En= -535.593283819666    
 JPrj=0 DoOrth=F DoCkMO=F.
 Initial guess orbital symmetries:
 Alpha Orbitals:
       Occupied  (A') (A') (A') (A') (A') (A") (A') (A') (A') (A')
                 (A") (A') (A") (A')
       Virtual   (A') (A') (A') (A") (A') (A") (A') (A') (A") (A')
                 (A') (A") (A') (A') (A') (A") (A') (A') (A") (A')
                 (A') (A") (A') (A") (A') (A") (A') (A') (A') (A")
                 (A') (A') (A') (A") (A") (A') (A") (A') (A") (A')
                 (A') (A') (A') (A") (A') (A") (A') (A') (A") (A')
                 (A') (A") (A') (A") (A') (A") (A') (A') (A") (A')
                 (A') (A") (A') (A") (A') (A") (A') (A") (A') (A")
                 (A') (A') (A") (A') (A") (A') (A") (A') (A') (A")
                 (A') (A') (A") (A') (A") (A') (A') (A') (A") (A')
                 (A') (A") (A') (A') (A') (A") (A") (A') (A') (A")
                 (A") (A') (A') (A") (A') (A') (A") (A') (A") (A')
                 (A') (A") (A') (A') (A") (A') (A') (A") (A') (A")
                 (A') (A') (A") (A") (A') (A') (A") (A') (A') (A")
                 (A') (A") (A') (A') (A') (A') (A") (A') (A') (A')
                 (A') (A') (A')
 Beta  Orbitals:
       Occupied  (A') (A') (A') (A') (A') (A") (A') (A') (A') (A')
                 (A") (A')
       Virtual   (A") (A') (A') (A') (A') (A") (A') (A") (A') (A')
                 (A") (A') (A') (A") (A') (A') (A') (A") (A') (A')
                 (A") (A') (A') (A") (A') (A") (A') (A") (A') (A')
                 (A') (A") (A') (A') (A') (A") (A") (A') (A") (A')
                 (A") (A') (A') (A') (A') (A") (A') (A") (A') (A')
                 (A") (A') (A') (A") (A') (A") (A') (A") (A') (A')
                 (A") (A') (A') (A") (A') (A") (A') (A") (A') (A")
                 (A') (A") (A') (A') (A") (A') (A") (A') (A") (A')
                 (A') (A") (A') (A') (A") (A') (A") (A') (A') (A')
                 (A") (A') (A') (A") (A') (A') (A') (A") (A") (A')
                 (A') (A") (A") (A') (A') (A") (A') (A') (A") (A')
                 (A") (A') (A') (A") (A') (A') (A") (A') (A') (A")
                 (A') (A") (A') (A') (A") (A") (A') (A') (A") (A')
                 (A') (A") (A') (A") (A') (A') (A') (A') (A") (A')
                 (A') (A') (A') (A') (A')
 The electronic state of the initial guess is 3-A".
 Initial guess <Sx>= 0.0000 <Sy>= 0.0000 <Sz>= 1.0000 <S**2>= 2.0000 S= 1.0000
 Leave Link  401 at Fri Apr 16 23:09:01 2021, MaxMem=   104857600 cpu:             109.5 elap:               2.5
 (Enter /s/ls4/users/knvvv/bin/g16sse/l502.exe)
 Integral symmetry usage will be decided dynamically.
 UHF open shell SCF:
 Using DIIS extrapolation, IDIIS=  1040.
 NGot=   104857600 LenX=   104771828 LenY=   104734138
 Requested convergence on RMS density matrix=1.00D-08 within 128 cycles.
 Requested convergence on MAX density matrix=1.00D-06.
 Requested convergence on             energy=1.00D-06.
 No special actions if energy rises.
 Fock matrices will be formed incrementally for  20 cycles.
 Integral accuracy reduced to 1.0D-05 until final iterations.

 Cycle   1  Pass 0  IDiag  1:
 FoFJK:  IHMeth= 1 ICntrl=       0 DoSepK=F KAlg= 0 I1Cent=           0 FoldK=F
 IRaf= 970000000 NMat=       1 IRICut=       1 DoRegI=T DoRafI=F ISym2E= 1 IDoP0=0 IntGTp=1.
 FoFCou: FMM=F IPFlag=           0 FMFlag=      100000 FMFlg1=           0
         NFxFlg=           0 DoJE=F BraDBF=F KetDBF=F FulRan=T
         wScrn=  0.000000 ICntrl=         0 IOpCl=  1 I1Cent=           0 NGrid=           0
         NMat0=    1 NMatS0=      1 NMatT0=    0 NMatD0=    1 NMtDS0=    0 NMtDT0=    0
 Petite list used in FoFCou.
 CoulSu:  requested number of processors reduced to:  20 ShMem   1 Linda.
 E= -535.352525042193    
 DIIS: error= 5.85D-02 at cycle   1 NSaved=   1.
 NSaved= 1 IEnMin= 1 EnMin= -535.352525042193     IErMin= 1 ErrMin= 5.85D-02
 ErrMax= 5.85D-02  0.00D+00 EMaxC= 1.00D-01 BMatC= 1.92D+00 BMatP= 1.92D+00
 IDIUse=3 WtCom= 4.15D-01 WtEn= 5.85D-01
 Coeff-Com:  0.100D+01
 Coeff-En:   0.100D+01
 Coeff:      0.100D+01
 Gap=     0.586 Goal=   None    Shift=    0.000
 Gap=     0.083 Goal=   None    Shift=    0.000
 GapD=    0.083 DampG=0.500 DampE=0.500 DampFc=0.2500 IDamp=-1.
 Damping current iteration by 2.50D-01
 RMSDP=8.56D-03 MaxDP=3.03D-01              OVMax= 9.36D-01

 Cycle   2  Pass 0  IDiag  1:
 RMSU=  2.14D-03    CP:  1.00D+00
 CoulSu:  requested number of processors reduced to:  20 ShMem   1 Linda.
 E= -535.498546237720     Delta-E=       -0.146021195526 Rises=F Damp=T
 DIIS: error= 2.77D-02 at cycle   2 NSaved=   2.
 NSaved= 2 IEnMin= 2 EnMin= -535.498546237720     IErMin= 2 ErrMin= 2.77D-02
 ErrMax= 2.77D-02  0.00D+00 EMaxC= 1.00D-01 BMatC= 2.67D-01 BMatP= 1.92D+00
 IDIUse=3 WtCom= 7.23D-01 WtEn= 2.77D-01
 Coeff-Com: -0.147D+00 0.115D+01
 Coeff-En:   0.213D+00 0.787D+00
 Coeff:     -0.475D-01 0.105D+01
 Gap=     0.343 Goal=   None    Shift=    0.000
 Gap=     0.352 Goal=   None    Shift=    0.000
 RMSDP=2.38D-03 MaxDP=7.98D-02 DE=-1.46D-01 OVMax= 6.17D-01

 Cycle   3  Pass 0  IDiag  1:
 RMSU=  2.38D-03    CP:  1.01D+00  9.46D-01
 CoulSu:  requested number of processors reduced to:  20 ShMem   1 Linda.
 E= -535.788711148477     Delta-E=       -0.290164910757 Rises=F Damp=F
 DIIS: error= 3.16D-02 at cycle   3 NSaved=   3.
 NSaved= 3 IEnMin= 3 EnMin= -535.788711148477     IErMin= 2 ErrMin= 2.77D-02
 ErrMax= 3.16D-02  0.00D+00 EMaxC= 1.00D-01 BMatC= 3.06D-01 BMatP= 2.67D-01
 IDIUse=2 WtCom= 0.00D+00 WtEn= 1.00D+00
 Coeff-En:   0.129D+00 0.000D+00 0.871D+00
 Coeff:      0.129D+00 0.000D+00 0.871D+00
 Gap=     0.636 Goal=   None    Shift=    0.000
 Gap=     0.199 Goal=   None    Shift=    0.000
 RMSDP=1.87D-03 MaxDP=6.52D-02 DE=-2.90D-01 OVMax= 2.55D-01

 Cycle   4  Pass 0  IDiag  1:
 RMSU=  9.71D-04    CP:  1.00D+00  2.86D-01  6.94D-01
 CoulSu:  requested number of processors reduced to:  20 ShMem   1 Linda.
 E= -535.768798619064     Delta-E=        0.019912529412 Rises=F Damp=F
 DIIS: error= 3.97D-02 at cycle   4 NSaved=   4.
 NSaved= 4 IEnMin= 3 EnMin= -535.788711148477     IErMin= 2 ErrMin= 2.77D-02
 ErrMax= 3.97D-02  0.00D+00 EMaxC= 1.00D-01 BMatC= 3.60D-01 BMatP= 2.67D-01
 IDIUse=2 WtCom= 0.00D+00 WtEn= 1.00D+00
 Coeff-En:   0.000D+00 0.000D+00 0.553D+00 0.447D+00
 Coeff:      0.000D+00 0.000D+00 0.553D+00 0.447D+00
 Gap=     0.500 Goal=   None    Shift=    0.000
 Gap=     0.152 Goal=   None    Shift=    0.000
 RMSDP=1.08D-03 MaxDP=5.15D-02 DE= 1.99D-02 OVMax= 2.96D-01

 Cycle   5  Pass 0  IDiag  1:
 RMSU=  5.55D-04    CP:  1.00D+00  5.74D-01  9.72D-01  7.68D-01
 CoulSu:  requested number of processors reduced to:  20 ShMem   1 Linda.
 E= -535.861867603591     Delta-E=       -0.093068984526 Rises=F Damp=F
 DIIS: error= 5.90D-03 at cycle   5 NSaved=   5.
 NSaved= 5 IEnMin= 5 EnMin= -535.861867603591     IErMin= 5 ErrMin= 5.90D-03
 ErrMax= 5.90D-03  0.00D+00 EMaxC= 1.00D-01 BMatC= 1.14D-02 BMatP= 2.67D-01
 IDIUse=3 WtCom= 9.41D-01 WtEn= 5.90D-02
 Coeff-Com:  0.110D-01-0.133D-01-0.140D+00 0.100D-01 0.113D+01
 Coeff-En:   0.000D+00 0.000D+00 0.000D+00 0.000D+00 0.100D+01
 Coeff:      0.103D-01-0.125D-01-0.132D+00 0.942D-02 0.112D+01
 Gap=     0.493 Goal=   None    Shift=    0.000
 Gap=     0.200 Goal=   None    Shift=    0.000
 RMSDP=5.02D-04 MaxDP=2.11D-02 DE=-9.31D-02 OVMax= 1.01D-01

 Cycle   6  Pass 0  IDiag  1:
 RMSU=  2.19D-04    CP:  9.99D-01  5.13D-01  9.86D-01  1.03D+00  1.63D+00
 CoulSu:  requested number of processors reduced to:  20 ShMem   1 Linda.
 E= -535.869612001816     Delta-E=       -0.007744398225 Rises=F Damp=F
 DIIS: error= 2.90D-03 at cycle   6 NSaved=   6.
 NSaved= 6 IEnMin= 6 EnMin= -535.869612001816     IErMin= 6 ErrMin= 2.90D-03
 ErrMax= 2.90D-03  0.00D+00 EMaxC= 1.00D-01 BMatC= 2.22D-03 BMatP= 1.14D-02
 IDIUse=3 WtCom= 9.71D-01 WtEn= 2.90D-02
 Coeff-Com:  0.139D-01 0.322D-02-0.922D-01-0.583D-01 0.286D-01 0.110D+01
 Coeff-En:   0.000D+00 0.000D+00 0.000D+00 0.000D+00 0.000D+00 0.100D+01
 Coeff:      0.135D-01 0.313D-02-0.896D-01-0.566D-01 0.277D-01 0.110D+01
 Gap=     0.470 Goal=   None    Shift=    0.000
 Gap=     0.217 Goal=   None    Shift=    0.000
 RMSDP=3.14D-04 MaxDP=9.88D-03 DE=-7.74D-03 OVMax= 7.78D-02

 Cycle   7  Pass 0  IDiag  1:
 RMSU=  1.05D-04    CP:  9.97D-01  4.91D-01  9.74D-01  1.13D+00  2.04D+00
                    CP:  1.65D+00
 CoulSu:  requested number of processors reduced to:  20 ShMem   1 Linda.
 E= -535.872538312008     Delta-E=       -0.002926310192 Rises=F Damp=F
 DIIS: error= 2.40D-03 at cycle   7 NSaved=   7.
 NSaved= 7 IEnMin= 7 EnMin= -535.872538312008     IErMin= 7 ErrMin= 2.40D-03
 ErrMax= 2.40D-03  0.00D+00 EMaxC= 1.00D-01 BMatC= 4.90D-04 BMatP= 2.22D-03
 IDIUse=3 WtCom= 9.76D-01 WtEn= 2.40D-02
 Coeff-Com:  0.115D-01-0.143D-01 0.571D-01 0.863D-03-0.146D+00-0.271D+00
 Coeff-Com:  0.136D+01
 Coeff-En:   0.000D+00 0.000D+00 0.000D+00 0.000D+00 0.000D+00 0.000D+00
 Coeff-En:   0.100D+01
 Coeff:      0.112D-01-0.140D-01 0.558D-01 0.843D-03-0.142D+00-0.264D+00
 Coeff:      0.135D+01
 Gap=     0.470 Goal=   None    Shift=    0.000
 Gap=     0.216 Goal=   None    Shift=    0.000
 RMSDP=2.05D-04 MaxDP=7.09D-03 DE=-2.93D-03 OVMax= 5.57D-02

 Cycle   8  Pass 0  IDiag  1:
 RMSU=  7.40D-05    CP:  9.97D-01  4.93D-01  9.65D-01  1.13D+00  2.27D+00
                    CP:  2.14D+00  1.92D+00
 CoulSu:  requested number of processors reduced to:  20 ShMem   1 Linda.
 E= -535.873738583770     Delta-E=       -0.001200271762 Rises=F Damp=F
 DIIS: error= 1.19D-03 at cycle   8 NSaved=   8.
 NSaved= 8 IEnMin= 8 EnMin= -535.873738583770     IErMin= 8 ErrMin= 1.19D-03
 ErrMax= 1.19D-03  0.00D+00 EMaxC= 1.00D-01 BMatC= 2.09D-04 BMatP= 4.90D-04
 IDIUse=3 WtCom= 9.88D-01 WtEn= 1.19D-02
 Coeff-Com: -0.179D-02 0.961D-03 0.720D-02 0.135D-02 0.136D+00-0.258D+00
 Coeff-Com: -0.267D+00 0.138D+01
 Coeff-En:   0.000D+00 0.000D+00 0.000D+00 0.000D+00 0.000D+00 0.000D+00
 Coeff-En:   0.000D+00 0.100D+01
 Coeff:     -0.177D-02 0.949D-03 0.711D-02 0.133D-02 0.134D+00-0.255D+00
 Coeff:     -0.264D+00 0.138D+01
 Gap=     0.471 Goal=   None    Shift=    0.000
 Gap=     0.218 Goal=   None    Shift=    0.000
 RMSDP=1.31D-04 MaxDP=4.98D-03 DE=-1.20D-03 OVMax= 3.42D-02

 Cycle   9  Pass 0  IDiag  1:
 RMSU=  3.87D-05    CP:  9.97D-01  4.98D-01  9.54D-01  1.11D+00  2.33D+00
                    CP:  2.32D+00  2.68D+00  1.95D+00
 CoulSu:  requested number of processors reduced to:  20 ShMem   1 Linda.
 E= -535.874230768205     Delta-E=       -0.000492184435 Rises=F Damp=F
 DIIS: error= 6.15D-04 at cycle   9 NSaved=   9.
 NSaved= 9 IEnMin= 9 EnMin= -535.874230768205     IErMin= 9 ErrMin= 6.15D-04
 ErrMax= 6.15D-04  0.00D+00 EMaxC= 1.00D-01 BMatC= 1.10D-04 BMatP= 2.09D-04
 IDIUse=3 WtCom= 9.94D-01 WtEn= 6.15D-03
 Coeff-Com: -0.540D-02 0.935D-02-0.165D-01-0.263D-02 0.203D-01 0.224D+00
 Coeff-Com: -0.376D+00-0.519D+00 0.167D+01
 Coeff-En:   0.000D+00 0.000D+00 0.000D+00 0.000D+00 0.000D+00 0.000D+00
 Coeff-En:   0.000D+00 0.000D+00 0.100D+01
 Coeff:     -0.537D-02 0.929D-02-0.164D-01-0.261D-02 0.201D-01 0.223D+00
 Coeff:     -0.374D+00-0.516D+00 0.166D+01
 Gap=     0.474 Goal=   None    Shift=    0.000
 Gap=     0.219 Goal=   None    Shift=    0.000
 RMSDP=1.22D-04 MaxDP=4.20D-03 DE=-4.92D-04 OVMax= 3.38D-02

 Cycle  10  Pass 0  IDiag  1:
 RMSU=  3.23D-05    CP:  9.97D-01  5.05D-01  9.47D-01  1.08D+00  2.35D+00
                    CP:  2.42D+00  3.00D+00  3.00D+00  2.42D+00
 CoulSu:  requested number of processors reduced to:  20 ShMem   1 Linda.
 E= -535.874546707885     Delta-E=       -0.000315939680 Rises=F Damp=F
 DIIS: error= 5.04D-04 at cycle  10 NSaved=  10.
 NSaved=10 IEnMin=10 EnMin= -535.874546707885     IErMin=10 ErrMin= 5.04D-04
 ErrMax= 5.04D-04  0.00D+00 EMaxC= 1.00D-01 BMatC= 4.06D-05 BMatP= 1.10D-04
 IDIUse=3 WtCom= 9.95D-01 WtEn= 5.04D-03
 Coeff-Com: -0.320D-02 0.446D-02-0.326D-02 0.553D-02-0.324D-01-0.142D-02
 Coeff-Com:  0.104D+00-0.292D+00-0.805D+00 0.202D+01
 Coeff-En:   0.000D+00 0.000D+00 0.000D+00 0.000D+00 0.000D+00 0.000D+00
 Coeff-En:   0.000D+00 0.000D+00 0.000D+00 0.100D+01
 Coeff:     -0.318D-02 0.443D-02-0.324D-02 0.551D-02-0.322D-01-0.141D-02
 Coeff:      0.104D+00-0.291D+00-0.801D+00 0.202D+01
 Gap=     0.477 Goal=   None    Shift=    0.000
 Gap=     0.221 Goal=   None    Shift=    0.000
 RMSDP=1.57D-04 MaxDP=5.49D-03 DE=-3.16D-04 OVMax= 4.50D-02

 Cycle  11  Pass 0  IDiag  1:
 RMSU=  1.12D-04    CP:  9.97D-01  5.11D-01  9.36D-01  1.05D+00  2.38D+00
                    CP:  2.56D+00  3.00D+00  3.00D+00  3.00D+00  3.00D+00
 CoulSu:  requested number of processors reduced to:  20 ShMem   1 Linda.
 E= -535.874783153182     Delta-E=       -0.000236445297 Rises=F Damp=F
 DIIS: error= 3.06D-04 at cycle  11 NSaved=  11.
 NSaved=11 IEnMin=11 EnMin= -535.874783153182     IErMin=11 ErrMin= 3.06D-04
 ErrMax= 3.06D-04  0.00D+00 EMaxC= 1.00D-01 BMatC= 1.41D-05 BMatP= 4.06D-05
 IDIUse=3 WtCom= 9.97D-01 WtEn= 3.06D-03
 Coeff-Com: -0.537D-03 0.798D-03 0.291D-02 0.127D-02-0.138D-02-0.486D-01
 Coeff-Com:  0.122D+00 0.214D+00-0.356D+00-0.292D+00 0.136D+01
 Coeff-En:   0.000D+00 0.000D+00 0.000D+00 0.000D+00 0.000D+00 0.000D+00
 Coeff-En:   0.000D+00 0.000D+00 0.000D+00 0.000D+00 0.100D+01
 Coeff:     -0.536D-03 0.796D-03 0.290D-02 0.126D-02-0.138D-02-0.484D-01
 Coeff:      0.121D+00 0.213D+00-0.355D+00-0.291D+00 0.136D+01
 Gap=     0.477 Goal=   None    Shift=    0.000
 Gap=     0.221 Goal=   None    Shift=    0.000
 RMSDP=4.35D-05 MaxDP=1.31D-03 DE=-2.36D-04 OVMax= 9.71D-03

 Cycle  12  Pass 0  IDiag  1:
 RMSU=  3.06D-05    CP:  9.97D-01  5.12D-01  9.34D-01  1.06D+00  2.38D+00
                    CP:  2.56D+00  3.00D+00  3.00D+00  3.00D+00  3.00D+00
                    CP:  1.27D+00
 CoulSu:  requested number of processors reduced to:  20 ShMem   1 Linda.
 E= -535.874827097127     Delta-E=       -0.000043943945 Rises=F Damp=F
 DIIS: error= 2.20D-04 at cycle  12 NSaved=  12.
 NSaved=12 IEnMin=12 EnMin= -535.874827097127     IErMin=12 ErrMin= 2.20D-04
 ErrMax= 2.20D-04  0.00D+00 EMaxC= 1.00D-01 BMatC= 5.81D-06 BMatP= 1.41D-05
 IDIUse=3 WtCom= 9.98D-01 WtEn= 2.20D-03
 Coeff-Com: -0.356D-04 0.200D-04 0.153D-02-0.143D-03-0.100D-02 0.116D-01
 Coeff-Com: -0.291D-01 0.606D-01 0.368D+00-0.991D+00 0.147D+00 0.143D+01
 Coeff-En:   0.000D+00 0.000D+00 0.000D+00 0.000D+00 0.000D+00 0.000D+00
 Coeff-En:   0.000D+00 0.000D+00 0.000D+00 0.000D+00 0.000D+00 0.100D+01
 Coeff:     -0.356D-04 0.200D-04 0.153D-02-0.143D-03-0.998D-03 0.116D-01
 Coeff:     -0.290D-01 0.605D-01 0.367D+00-0.988D+00 0.147D+00 0.143D+01
 Gap=     0.478 Goal=   None    Shift=    0.000
 Gap=     0.222 Goal=   None    Shift=    0.000
 RMSDP=6.17D-05 MaxDP=1.91D-03 DE=-4.39D-05 OVMax= 1.51D-02

 Cycle  13  Pass 0  IDiag  1:
 RMSU=  8.61D-06    CP:  9.97D-01  5.13D-01  9.31D-01  1.06D+00  2.39D+00
                    CP:  2.59D+00  3.00D+00  3.00D+00  3.00D+00  3.00D+00
                    CP:  1.70D+00  2.19D+00
 CoulSu:  requested number of processors reduced to:  20 ShMem   1 Linda.
 E= -535.874859295303     Delta-E=       -0.000032198176 Rises=F Damp=F
 DIIS: error= 9.48D-05 at cycle  13 NSaved=  13.
 NSaved=13 IEnMin=13 EnMin= -535.874859295303     IErMin=13 ErrMin= 9.48D-05
 ErrMax= 9.48D-05  0.00D+00 EMaxC= 1.00D-01 BMatC= 1.55D-06 BMatP= 5.81D-06
 IDIUse=1 WtCom= 1.00D+00 WtEn= 0.00D+00
 Coeff-Com: -0.403D-03 0.519D-03-0.939D-03 0.990D-03-0.267D-02-0.450D-02
 Coeff-Com: -0.133D-01-0.708D-01 0.447D-01 0.243D+00-0.289D+00-0.487D+00
 Coeff-Com:  0.158D+01
 Coeff:     -0.403D-03 0.519D-03-0.939D-03 0.990D-03-0.267D-02-0.450D-02
 Coeff:     -0.133D-01-0.708D-01 0.447D-01 0.243D+00-0.289D+00-0.487D+00
 Coeff:      0.158D+01
 Gap=     0.478 Goal=   None    Shift=    0.000
 Gap=     0.222 Goal=   None    Shift=    0.000
 RMSDP=3.08D-05 MaxDP=8.26D-04 DE=-3.22D-05 OVMax= 6.89D-03

 Cycle  14  Pass 0  IDiag  1:
 RMSU=  5.27D-06    CP:  9.97D-01  5.14D-01  9.30D-01  1.06D+00  2.40D+00
                    CP:  2.62D+00  3.00D+00  3.00D+00  3.00D+00  3.00D+00
                    CP:  1.87D+00  2.82D+00  1.77D+00
 CoulSu:  requested number of processors reduced to:  20 ShMem   1 Linda.
 E= -535.874865170744     Delta-E=       -0.000005875441 Rises=F Damp=F
 DIIS: error= 5.43D-05 at cycle  14 NSaved=  14.
 NSaved=14 IEnMin=14 EnMin= -535.874865170744     IErMin=14 ErrMin= 5.43D-05
 ErrMax= 5.43D-05  0.00D+00 EMaxC= 1.00D-01 BMatC= 4.51D-07 BMatP= 1.55D-06
 IDIUse=1 WtCom= 1.00D+00 WtEn= 0.00D+00
 Coeff-Com: -0.272D-03 0.394D-03-0.316D-03 0.209D-03-0.166D-02 0.807D-03
 Coeff-Com:  0.943D-02-0.352D-01-0.218D-01 0.202D+00-0.136D+00-0.342D+00
 Coeff-Com:  0.418D+00 0.906D+00
 Coeff:     -0.272D-03 0.394D-03-0.316D-03 0.209D-03-0.166D-02 0.807D-03
 Coeff:      0.943D-02-0.352D-01-0.218D-01 0.202D+00-0.136D+00-0.342D+00
 Coeff:      0.418D+00 0.906D+00
 Gap=     0.478 Goal=   None    Shift=    0.000
 Gap=     0.222 Goal=   None    Shift=    0.000
 RMSDP=6.75D-06 MaxDP=2.70D-04 DE=-5.88D-06 OVMax= 1.82D-03

 Initial convergence to 1.0D-05 achieved.  Increase integral accuracy.
 Cycle  15  Pass 1  IDiag  1:
 CoulSu:  requested number of processors reduced to:  20 ShMem   1 Linda.
 E= -535.874994959817     Delta-E=       -0.000129789073 Rises=F Damp=F
 DIIS: error= 2.23D-04 at cycle   1 NSaved=   1.
 NSaved= 1 IEnMin= 1 EnMin= -535.874994959817     IErMin= 1 ErrMin= 2.23D-04
 ErrMax= 2.23D-04  0.00D+00 EMaxC= 1.00D-01 BMatC= 5.58D-06 BMatP= 5.58D-06
 IDIUse=3 WtCom= 9.98D-01 WtEn= 2.23D-03
 Coeff-Com:  0.100D+01
 Coeff-En:   0.100D+01
 Coeff:      0.100D+01
 Gap=     0.478 Goal=   None    Shift=    0.000
 Gap=     0.222 Goal=   None    Shift=    0.000
 RMSDP=6.75D-06 MaxDP=2.70D-04 DE=-1.30D-04 OVMax= 5.81D-04

 Cycle  16  Pass 1  IDiag  1:
 RMSU=  1.01D-05    CP:  1.00D+00
 CoulSu:  requested number of processors reduced to:  20 ShMem   1 Linda.
 E= -535.874995381087     Delta-E=       -0.000000421270 Rises=F Damp=F
 DIIS: error= 1.69D-05 at cycle   2 NSaved=   2.
 NSaved= 2 IEnMin= 2 EnMin= -535.874995381087     IErMin= 2 ErrMin= 1.69D-05
 ErrMax= 1.69D-05  0.00D+00 EMaxC= 1.00D-01 BMatC= 1.27D-07 BMatP= 5.58D-06
 IDIUse=1 WtCom= 1.00D+00 WtEn= 0.00D+00
 Coeff-Com: -0.167D-02 0.100D+01
 Coeff:     -0.167D-02 0.100D+01
 Gap=     0.478 Goal=   None    Shift=    0.000
 Gap=     0.222 Goal=   None    Shift=    0.000
 RMSDP=1.82D-06 MaxDP=6.18D-05 DE=-4.21D-07 OVMax= 3.34D-04

 Cycle  17  Pass 1  IDiag  1:
 RMSU=  1.79D-06    CP:  1.00D+00  1.03D+00
 CoulSu:  requested number of processors reduced to:  20 ShMem   1 Linda.
 E= -535.874995453366     Delta-E=       -0.000000072280 Rises=F Damp=F
 DIIS: error= 2.42D-05 at cycle   3 NSaved=   3.
 NSaved= 3 IEnMin= 3 EnMin= -535.874995453366     IErMin= 2 ErrMin= 1.69D-05
 ErrMax= 2.42D-05  0.00D+00 EMaxC= 1.00D-01 BMatC= 1.32D-07 BMatP= 1.27D-07
 IDIUse=1 WtCom= 1.00D+00 WtEn= 0.00D+00
 Coeff-Com: -0.156D-01 0.516D+00 0.500D+00
 Coeff:     -0.156D-01 0.516D+00 0.500D+00
 Gap=     0.478 Goal=   None    Shift=    0.000
 Gap=     0.222 Goal=   None    Shift=    0.000
 RMSDP=8.63D-07 MaxDP=2.63D-05 DE=-7.23D-08 OVMax= 2.07D-04

 Cycle  18  Pass 1  IDiag  1:
 RMSU=  8.14D-07    CP:  1.00D+00  1.06D+00  1.06D+00
 CoulSu:  requested number of processors reduced to:  20 ShMem   1 Linda.
 E= -535.874995502045     Delta-E=       -0.000000048679 Rises=F Damp=F
 DIIS: error= 1.27D-05 at cycle   4 NSaved=   4.
 NSaved= 4 IEnMin= 4 EnMin= -535.874995502045     IErMin= 4 ErrMin= 1.27D-05
 ErrMax= 1.27D-05  0.00D+00 EMaxC= 1.00D-01 BMatC= 2.07D-08 BMatP= 1.27D-07
 IDIUse=1 WtCom= 1.00D+00 WtEn= 0.00D+00
 Coeff-Com:  0.121D-02-0.316D+00-0.209D-01 0.134D+01
 Coeff:      0.121D-02-0.316D+00-0.209D-01 0.134D+01
 Gap=     0.478 Goal=   None    Shift=    0.000
 Gap=     0.222 Goal=   None    Shift=    0.000
 RMSDP=1.46D-06 MaxDP=5.53D-05 DE=-4.87D-08 OVMax= 3.96D-04

 Cycle  19  Pass 1  IDiag  1:
 RMSU=  3.67D-07    CP:  1.00D+00  1.08D+00  1.74D+00  1.84D+00
 CoulSu:  requested number of processors reduced to:  20 ShMem   1 Linda.
 E= -535.874995556280     Delta-E=       -0.000000054235 Rises=F Damp=F
 DIIS: error= 9.70D-06 at cycle   5 NSaved=   5.
 NSaved= 5 IEnMin= 5 EnMin= -535.874995556280     IErMin= 5 ErrMin= 9.70D-06
 ErrMax= 9.70D-06  0.00D+00 EMaxC= 1.00D-01 BMatC= 8.40D-09 BMatP= 2.07D-08
 IDIUse=1 WtCom= 1.00D+00 WtEn= 0.00D+00
 Coeff-Com:  0.467D-02-0.155D+00-0.206D+00-0.225D+00 0.158D+01
 Coeff:      0.467D-02-0.155D+00-0.206D+00-0.225D+00 0.158D+01
 Gap=     0.478 Goal=   None    Shift=    0.000
 Gap=     0.222 Goal=   None    Shift=    0.000
 RMSDP=1.64D-06 MaxDP=6.04D-05 DE=-5.42D-08 OVMax= 4.52D-04

 Cycle  20  Pass 1  IDiag  1:
 RMSU=  1.73D-07    CP:  1.00D+00  1.10D+00  2.44D+00  2.91D+00  2.38D+00
 CoulSu:  requested number of processors reduced to:  20 ShMem   1 Linda.
 E= -535.874995596160     Delta-E=       -0.000000039880 Rises=F Damp=F
 DIIS: error= 5.41D-06 at cycle   6 NSaved=   6.
 NSaved= 6 IEnMin= 6 EnMin= -535.874995596160     IErMin= 6 ErrMin= 5.41D-06
 ErrMax= 5.41D-06  0.00D+00 EMaxC= 1.00D-01 BMatC= 3.68D-09 BMatP= 8.40D-09
 IDIUse=1 WtCom= 1.00D+00 WtEn= 0.00D+00
 Coeff-Com: -0.138D-02 0.169D+00 0.203D-01-0.517D+00-0.256D+00 0.158D+01
 Coeff:     -0.138D-02 0.169D+00 0.203D-01-0.517D+00-0.256D+00 0.158D+01
 Gap=     0.478 Goal=   None    Shift=    0.000
 Gap=     0.222 Goal=   None    Shift=    0.000
 RMSDP=1.25D-06 MaxDP=3.96D-05 DE=-3.99D-08 OVMax= 3.17D-04

 Cycle  21  Pass 1  IDiag  1:
 RMSU=  6.14D-07    CP:  1.00D+00  1.12D+00  2.95D+00  3.00D+00  3.00D+00
                    CP:  2.58D+00
 CoulSu:  requested number of processors reduced to:  20 ShMem   1 Linda.
 E= -535.874995614326     Delta-E=       -0.000000018166 Rises=F Damp=F
 DIIS: error= 2.70D-06 at cycle   7 NSaved=   7.
 NSaved= 7 IEnMin= 7 EnMin= -535.874995614326     IErMin= 7 ErrMin= 2.70D-06
 ErrMax= 2.70D-06  0.00D+00 EMaxC= 1.00D-01 BMatC= 1.63D-09 BMatP= 3.68D-09
 IDIUse=1 WtCom= 1.00D+00 WtEn= 0.00D+00
 Coeff-Com: -0.127D-02-0.152D-01 0.309D-01 0.467D+00-0.699D+00-0.542D+00
 Coeff-Com:  0.176D+01
 Coeff:     -0.127D-02-0.152D-01 0.309D-01 0.467D+00-0.699D+00-0.542D+00
 Coeff:      0.176D+01
 Gap=     0.478 Goal=   None    Shift=    0.000
 Gap=     0.222 Goal=   None    Shift=    0.000
 RMSDP=7.60D-07 MaxDP=2.43D-05 DE=-1.82D-08 OVMax= 1.87D-04

 Cycle  22  Pass 1  IDiag  1:
 RMSU=  5.02D-07    CP:  1.00D+00  1.13D+00  3.00D+00  3.00D+00  3.00D+00
                    CP:  3.00D+00  1.73D+00
 CoulSu:  requested number of processors reduced to:  20 ShMem   1 Linda.
 E= -535.874995621504     Delta-E=       -0.000000007178 Rises=F Damp=F
 DIIS: error= 1.22D-06 at cycle   8 NSaved=   8.
 NSaved= 8 IEnMin= 8 EnMin= -535.874995621504     IErMin= 8 ErrMin= 1.22D-06
 ErrMax= 1.22D-06  0.00D+00 EMaxC= 1.00D-01 BMatC= 8.19D-10 BMatP= 1.63D-09
 IDIUse=1 WtCom= 1.00D+00 WtEn= 0.00D+00
 Coeff-Com:  0.953D-03-0.856D-01-0.791D-01 0.307D+00 0.187D+00-0.733D+00
 Coeff-Com: -0.202D+00 0.160D+01
 Coeff:      0.953D-03-0.856D-01-0.791D-01 0.307D+00 0.187D+00-0.733D+00
 Coeff:     -0.202D+00 0.160D+01
 Gap=     0.478 Goal=   None    Shift=    0.000
 Gap=     0.222 Goal=   None    Shift=    0.000
 RMSDP=5.21D-07 MaxDP=1.84D-05 DE=-7.18D-09 OVMax= 1.45D-04

 Cycle  23  Pass 1  IDiag  1:
 RMSU=  1.48D-07    CP:  1.00D+00  1.13D+00  3.00D+00  3.00D+00  3.00D+00
                    CP:  3.00D+00  2.19D+00  1.81D+00
 CoulSu:  requested number of processors reduced to:  20 ShMem   1 Linda.
 E= -535.874995624252     Delta-E=       -0.000000002748 Rises=F Damp=F
 DIIS: error= 6.85D-07 at cycle   9 NSaved=   9.
 NSaved= 9 IEnMin= 9 EnMin= -535.874995624252     IErMin= 9 ErrMin= 6.85D-07
 ErrMax= 6.85D-07  0.00D+00 EMaxC= 1.00D-01 BMatC= 2.00D-10 BMatP= 8.19D-10
 IDIUse=1 WtCom= 1.00D+00 WtEn= 0.00D+00
 Coeff-Com:  0.508D-03 0.344D-02-0.319D-01-0.943D-01 0.175D+00 0.175D+00
 Coeff-Com: -0.454D+00-0.173D+00 0.140D+01
 Coeff:      0.508D-03 0.344D-02-0.319D-01-0.943D-01 0.175D+00 0.175D+00
 Coeff:     -0.454D+00-0.173D+00 0.140D+01
 Gap=     0.478 Goal=   None    Shift=    0.000
 Gap=     0.222 Goal=   None    Shift=    0.000
 RMSDP=2.33D-07 MaxDP=7.95D-06 DE=-2.75D-09 OVMax= 6.66D-05

 Cycle  24  Pass 1  IDiag  1:
 RMSU=  3.21D-08    CP:  1.00D+00  1.14D+00  3.00D+00  3.00D+00  3.00D+00
                    CP:  3.00D+00  2.37D+00  2.14D+00  1.81D+00
 CoulSu:  requested number of processors reduced to:  20 ShMem   1 Linda.
 E= -535.874995624784     Delta-E=       -0.000000000532 Rises=F Damp=F
 DIIS: error= 4.27D-07 at cycle  10 NSaved=  10.
 NSaved=10 IEnMin=10 EnMin= -535.874995624784     IErMin=10 ErrMin= 4.27D-07
 ErrMax= 4.27D-07  0.00D+00 EMaxC= 1.00D-01 BMatC= 4.04D-11 BMatP= 2.00D-10
 IDIUse=1 WtCom= 1.00D+00 WtEn= 0.00D+00
 Coeff-Com: -0.991D-04 0.208D-01 0.882D-02-0.842D-01-0.368D-01 0.249D+00
 Coeff-Com: -0.161D-02-0.567D+00 0.328D+00 0.108D+01
 Coeff:     -0.991D-04 0.208D-01 0.882D-02-0.842D-01-0.368D-01 0.249D+00
 Coeff:     -0.161D-02-0.567D+00 0.328D+00 0.108D+01
 Gap=     0.478 Goal=   None    Shift=    0.000
 Gap=     0.222 Goal=   None    Shift=    0.000
 RMSDP=1.02D-07 MaxDP=3.52D-06 DE=-5.32D-10 OVMax= 2.89D-05

 Cycle  25  Pass 1  IDiag  1:
 RMSU=  1.59D-08    CP:  1.00D+00  1.14D+00  3.00D+00  3.00D+00  3.00D+00
                    CP:  3.00D+00  2.44D+00  2.28D+00  2.17D+00  1.63D+00
 CoulSu:  requested number of processors reduced to:  20 ShMem   1 Linda.
 E= -535.874995624868     Delta-E=       -0.000000000083 Rises=F Damp=F
 DIIS: error= 1.23D-07 at cycle  11 NSaved=  11.
 NSaved=11 IEnMin=11 EnMin= -535.874995624868     IErMin=11 ErrMin= 1.23D-07
 ErrMax= 1.23D-07  0.00D+00 EMaxC= 1.00D-01 BMatC= 4.87D-12 BMatP= 4.04D-11
 IDIUse=1 WtCom= 1.00D+00 WtEn= 0.00D+00
 Coeff-Com: -0.381D-04-0.464D-02-0.163D-02 0.405D-01-0.218D-01-0.928D-01
 Coeff-Com:  0.792D-01 0.169D+00-0.331D+00-0.207D+00 0.137D+01
 Coeff:     -0.381D-04-0.464D-02-0.163D-02 0.405D-01-0.218D-01-0.928D-01
 Coeff:      0.792D-01 0.169D+00-0.331D+00-0.207D+00 0.137D+01
 Gap=     0.478 Goal=   None    Shift=    0.000
 Gap=     0.222 Goal=   None    Shift=    0.000
 RMSDP=3.07D-08 MaxDP=1.03D-06 DE=-8.33D-11 OVMax= 7.75D-06

 Cycle  26  Pass 1  IDiag  1:
 RMSU=  6.51D-09    CP:  1.00D+00  1.14D+00  3.00D+00  3.00D+00  3.00D+00
                    CP:  3.00D+00  2.46D+00  2.31D+00  2.26D+00  1.93D+00
                    CP:  1.45D+00
 CoulSu:  requested number of processors reduced to:  20 ShMem   1 Linda.
 E= -535.874995624871     Delta-E=       -0.000000000004 Rises=F Damp=F
 DIIS: error= 1.92D-08 at cycle  12 NSaved=  12.
 NSaved=12 IEnMin=12 EnMin= -535.874995624871     IErMin=12 ErrMin= 1.92D-08
 ErrMax= 1.92D-08  0.00D+00 EMaxC= 1.00D-01 BMatC= 1.09D-13 BMatP= 4.87D-12
 IDIUse=1 WtCom= 1.00D+00 WtEn= 0.00D+00
 Coeff-Com:  0.664D-05-0.109D-02-0.685D-03 0.414D-02 0.214D-02-0.126D-01
 Coeff-Com:  0.303D-02 0.237D-01-0.137D-01-0.590D-01-0.288D-01 0.108D+01
 Coeff:      0.664D-05-0.109D-02-0.685D-03 0.414D-02 0.214D-02-0.126D-01
 Coeff:      0.303D-02 0.237D-01-0.137D-01-0.590D-01-0.288D-01 0.108D+01
 Gap=     0.478 Goal=   None    Shift=    0.000
 Gap=     0.222 Goal=   None    Shift=    0.000
 RMSDP=3.50D-09 MaxDP=1.26D-07 DE=-3.64D-12 OVMax= 7.46D-07

 SCF Done:  E(UM062X) =  -535.874995625     A.U. after   26 cycles
            NFock= 26  Conv=0.35D-08     -V/T= 2.0016
 <Sx>= 0.0000 <Sy>= 0.0000 <Sz>= 1.0000 <S**2>= 2.0162 S= 1.0054
 <L.S>= 0.000000000000E+00
 KE= 5.350438506970D+02 PE=-1.351049858971D+03 EE= 2.415011814802D+02
 Annihilation of the first spin contaminant:
 S**2 before annihilation     2.0162,   after     2.0001
 Leave Link  502 at Fri Apr 16 23:13:07 2021, MaxMem=   104857600 cpu:           11116.9 elap:             245.9
 (Enter /s/ls4/users/knvvv/bin/g16sse/l601.exe)
 Copying SCF densities to generalized density rwf, IOpCl= 1 IROHF=0.

 **********************************************************************

            Population analysis using the SCF density.

 **********************************************************************

 Orbital symmetries:
 Alpha Orbitals:
       Occupied  (A') (A') (A') (A') (A") (A') (A') (A') (A') (A")
                 (A') (A') (A") (A')
       Virtual   (A') (A') (A') (A") (A') (A") (A') (A') (A') (A")
                 (A') (A") (A') (A') (A') (A") (A') (A') (A") (A')
                 (A') (A") (A') (A") (A') (A") (A') (A') (A') (A")
                 (A') (A") (A') (A') (A") (A') (A") (A') (A") (A')
                 (A') (A') (A") (A') (A') (A") (A') (A') (A") (A')
                 (A') (A") (A') (A") (A') (A') (A") (A') (A") (A')
                 (A') (A") (A') (A") (A') (A") (A') (A") (A') (A")
                 (A') (A') (A") (A') (A") (A') (A") (A') (A") (A')
                 (A') (A') (A") (A') (A") (A') (A') (A') (A") (A')
                 (A') (A") (A') (A') (A') (A") (A") (A') (A') (A")
                 (A") (A') (A') (A") (A') (A') (A') (A") (A') (A")
                 (A') (A') (A") (A') (A") (A') (A') (A") (A') (A")
                 (A') (A") (A') (A") (A') (A') (A") (A') (A') (A")
                 (A') (A") (A') (A') (A') (A') (A") (A') (A') (A')
                 (A') (A') (A')
 Beta  Orbitals:
       Occupied  (A') (A') (A') (A') (A") (A') (A') (A') (A') (A')
                 (A") (A')
       Virtual   (A') (A") (A') (A') (A') (A') (A") (A') (A") (A')
                 (A") (A') (A') (A") (A') (A') (A') (A") (A') (A')
                 (A") (A') (A') (A") (A') (A") (A') (A") (A') (A')
                 (A") (A') (A') (A') (A") (A') (A") (A') (A") (A')
                 (A") (A') (A') (A') (A") (A') (A') (A") (A') (A')
                 (A") (A') (A') (A") (A') (A") (A') (A') (A") (A')
                 (A") (A') (A') (A") (A') (A") (A') (A") (A') (A")
                 (A') (A") (A') (A") (A') (A") (A') (A') (A") (A')
                 (A") (A') (A') (A') (A") (A') (A") (A') (A') (A')
                 (A") (A') (A') (A") (A') (A') (A') (A") (A") (A')
                 (A') (A") (A") (A') (A') (A") (A') (A') (A') (A")
                 (A') (A') (A") (A') (A") (A') (A") (A') (A') (A")
                 (A') (A") (A') (A') (A") (A') (A") (A') (A") (A')
                 (A') (A") (A') (A') (A") (A') (A') (A') (A") (A')
                 (A') (A') (A') (A') (A')
 The electronic state is 3-A".
 Alpha  occ. eigenvalues -- -102.67502 -19.78831  -9.82795  -7.55886  -7.54772
 Alpha  occ. eigenvalues --   -7.54760  -1.19801  -0.94113  -0.64422  -0.57652
 Alpha  occ. eigenvalues --   -0.52789  -0.43858  -0.41089  -0.41083
 Alpha virt. eigenvalues --    0.06676   0.16207   0.20609   0.20776   0.21185
 Alpha virt. eigenvalues --    0.26396   0.27230   0.29942   0.34408   0.34668
 Alpha virt. eigenvalues --    0.36186   0.37444   0.44898   0.57927   0.65693
 Alpha virt. eigenvalues --    0.66791   0.79852   0.87865   0.97235   0.98267
 Alpha virt. eigenvalues --    1.02565   1.10364   1.11655   1.16331   1.17887
 Alpha virt. eigenvalues --    1.18237   1.20338   1.22095   1.22310   1.22895
 Alpha virt. eigenvalues --    1.28804   1.31542   1.32204   1.33938   1.33995
 Alpha virt. eigenvalues --    1.35534   1.43112   1.54805   1.62794   1.71190
 Alpha virt. eigenvalues --    1.88368   1.93576   2.13853   2.14060   2.28393
 Alpha virt. eigenvalues --    2.29049   2.43393   2.53301   2.55769   2.80623
 Alpha virt. eigenvalues --    2.88977   3.04657   3.05114   3.15011   3.15849
 Alpha virt. eigenvalues --    3.20462   3.22059   3.24360   3.32812   3.35616
 Alpha virt. eigenvalues --    3.37611   3.52673   3.52972   3.55578   3.55582
 Alpha virt. eigenvalues --    3.57763   3.62986   3.68178   3.70890   3.78206
 Alpha virt. eigenvalues --    3.79149   3.84942   3.85233   3.86315   3.87317
 Alpha virt. eigenvalues --    3.87358   3.92926   3.94584   3.96812   3.98306
 Alpha virt. eigenvalues --    3.99963   4.21601   4.24084   4.34034   4.42596
 Alpha virt. eigenvalues --    4.51153   4.64400   4.80818   4.88952   5.07372
 Alpha virt. eigenvalues --    5.73385   5.78672   5.80997   6.35379   6.47541
 Alpha virt. eigenvalues --    6.56307   6.72196   7.09054   7.27151   7.62206
 Alpha virt. eigenvalues --    7.89088   7.90294   8.01892   8.14974   8.30427
 Alpha virt. eigenvalues --    8.48935   8.66311   8.66329   8.67808   8.70361
 Alpha virt. eigenvalues --    8.71065   9.13624   9.13778   9.61743   9.98659
 Alpha virt. eigenvalues --   10.20122  10.30159  10.62321  10.63233  10.65014
 Alpha virt. eigenvalues --   10.65420  10.70499  10.74667  10.82903  10.83117
 Alpha virt. eigenvalues --   11.07286  11.21321  11.33595  11.47775  11.64955
 Alpha virt. eigenvalues --   11.68761  12.12278  12.27142  13.06750  13.69850
 Alpha virt. eigenvalues --   28.59655  42.01466  42.01493  42.12873  47.29949
 Alpha virt. eigenvalues --   98.38060 250.29276 524.26293
  Beta  occ. eigenvalues -- -102.66906 -19.75729  -9.82614  -7.54630  -7.54492
  Beta  occ. eigenvalues --   -7.54310  -1.06379  -0.90544  -0.55693  -0.42685
  Beta  occ. eigenvalues --   -0.40125  -0.39848
  Beta virt. eigenvalues --   -0.17643  -0.14533   0.06721   0.16832   0.20206
  Beta virt. eigenvalues --    0.21347   0.21408   0.26864   0.27249   0.31291
  Beta virt. eigenvalues --    0.34120   0.35770   0.36745   0.37388   0.45345
  Beta virt. eigenvalues --    0.58748   0.65161   0.67684   0.80596   0.87887
  Beta virt. eigenvalues --    0.99462   0.99748   1.03007   1.11127   1.12269
  Beta virt. eigenvalues --    1.17475   1.18351   1.18861   1.20796   1.22901
  Beta virt. eigenvalues --    1.23629   1.23948   1.30803   1.33954   1.34053
  Beta virt. eigenvalues --    1.34407   1.35683   1.37014   1.44682   1.55621
  Beta virt. eigenvalues --    1.63118   1.71483   1.89843   1.93513   2.12780
  Beta virt. eigenvalues --    2.15085   2.28203   2.28481   2.43546   2.53305
  Beta virt. eigenvalues --    2.55430   2.80566   2.90147   3.05125   3.06041
  Beta virt. eigenvalues --    3.16047   3.18237   3.22546   3.22793   3.26678
  Beta virt. eigenvalues --    3.34271   3.37543   3.39131   3.54151   3.54452
  Beta virt. eigenvalues --    3.55993   3.56011   3.58693   3.64023   3.72421
  Beta virt. eigenvalues --    3.76193   3.81391   3.82501   3.87442   3.87701
  Beta virt. eigenvalues --    3.88265   3.88512   3.89200   3.93980   3.95211
  Beta virt. eigenvalues --    4.00202   4.00915   4.01931   4.22552   4.24974
  Beta virt. eigenvalues --    4.36644   4.44355   4.53555   4.65744   4.81923
  Beta virt. eigenvalues --    4.98177   5.09607   5.73327   5.76295   5.79128
  Beta virt. eigenvalues --    6.33566   6.43091   6.52491   6.68975   7.03092
  Beta virt. eigenvalues --    7.17641   7.58915   7.81362   7.85322   7.96254
  Beta virt. eigenvalues --    8.08962   8.25206   8.48604   8.62062   8.70530
  Beta virt. eigenvalues --    8.71736   8.75819   8.75831   9.17154   9.17830
  Beta virt. eigenvalues --    9.56839  10.07580  10.20189  10.33125  10.65261
  Beta virt. eigenvalues --   10.65947  10.74508  10.79250  10.81731  10.83140
  Beta virt. eigenvalues --   10.97068  10.98731  11.11048  11.41423  11.41555
  Beta virt. eigenvalues --   11.60882  11.86097  11.91716  12.36639  12.37384
  Beta virt. eigenvalues --   13.22626  13.80390  28.63618  42.02259  42.02718
  Beta virt. eigenvalues --   42.15920  47.44640  98.39683 250.26888 524.25803
          Condensed to atoms (all electrons):
               1          2          3
     1  Cl  16.979265   0.247476  -0.057051
     2  H    0.247476   0.361461   0.153857
     3  O   -0.057051   0.153857   7.970710
          Atomic-Atomic Spin Densities.
               1          2          3
     1  Cl   0.519793   0.018262  -0.085797
     2  H    0.018262  -0.053624   0.007908
     3  O   -0.085797   0.007908   1.653086
 Mulliken charges and spin densities:
               1          2
     1  Cl  -0.169689   0.452257
     2  H    0.237205  -0.027454
     3  O   -0.067516   1.575197
 Sum of Mulliken charges =  -0.00000   2.00000
 Mulliken charges and spin densities with hydrogens summed into heavy atoms:
               1          2
     1  Cl  -0.169689   0.452257
     3  O    0.169689   1.547743
 Electronic spatial extent (au):  <R**2>=            163.3823
 Charge=             -0.0000 electrons
 Dipole moment (field-independent basis, Debye):
    X=             -0.5829    Y=              0.5892    Z=              0.0000  Tot=              0.8288
 Quadrupole moment (field-independent basis, Debye-Ang):
   XX=            -19.1799   YY=            -18.1397   ZZ=            -18.6289
   XY=             -0.7325   XZ=              0.0000   YZ=              0.0000
 Traceless Quadrupole moment (field-independent basis, Debye-Ang):
   XX=             -0.5304   YY=              0.5098   ZZ=              0.0206
   XY=             -0.7325   XZ=              0.0000   YZ=              0.0000
 Octapole moment (field-independent basis, Debye-Ang**2):
  XXX=             -0.3089  YYY=              1.2265  ZZZ=              0.0000  XYY=             -0.1275
  XXY=              0.9563  XXZ=              0.0000  XZZ=             -0.0338  YZZ=              2.5443
  YYZ=              0.0000  XYZ=              0.0000
 Hexadecapole moment (field-independent basis, Debye-Ang**3):
 XXXX=            -21.3357 YYYY=           -150.5364 ZZZZ=            -19.4899 XXXY=              0.0160
 XXXZ=              0.0000 YYYX=             -0.6646 YYYZ=              0.0000 ZZZX=              0.0000
 ZZZY=              0.0000 XXYY=            -30.9968 XXZZ=             -6.8257 YYZZ=            -28.0478
 XXYZ=              0.0000 YYXZ=              0.0000 ZZXY=              0.0699
 N-N= 3.862983116913D+01 E-N=-1.351049859367D+03  KE= 5.350438506970D+02
                          Isotropic Fermi Contact Couplings
        Atom                 a.u.       MegaHertz       Gauss      10(-4) cm-1
     1  Cl(35)            -0.02169      -4.75477      -1.69662      -1.58602
     2  H(1)              -0.04231     -94.57106     -33.74531     -31.54551
     3  O(17)              0.16875     -51.14677     -18.25044     -17.06073
 PrsmSu:  requested number of processors reduced to:  21 ShMem   1 Linda.
 --------------------------------------------------------
       Center         ----  Spin Dipole Couplings  ----
                      3XX-RR        3YY-RR        3ZZ-RR
 --------------------------------------------------------
     1   Atom       -1.597968      2.979563     -1.381595
     2   Atom       -0.079377      0.212169     -0.132791
     3   Atom       -3.073867      0.533901      2.539965
 --------------------------------------------------------
                        XY            XZ            YZ
 --------------------------------------------------------
     1   Atom        0.816866      0.000000      0.000000
     2   Atom        0.127962      0.000000      0.000000
     3   Atom       -1.085255      0.000000      0.000000
 --------------------------------------------------------


 ---------------------------------------------------------------------------------
              Anisotropic Spin Dipole Couplings in Principal Axis System
 ---------------------------------------------------------------------------------

       Atom             a.u.   MegaHertz   Gauss  10(-4) cm-1        Axes

              Baa    -1.7394   -91.035   -32.483   -30.366  0.9853 -0.1706 -0.0000
     1 Cl(35) Bbb    -1.3816   -72.309   -25.802   -24.120  0.0000  0.0000  1.0000
              Bcc     3.1210   163.344    58.285    54.486  0.1706  0.9853  0.0000
 
              Baa    -0.1328   -70.851   -25.281   -23.633  0.0000  0.0000  1.0000
     2 H(1)   Bbb    -0.1276   -68.067   -24.288   -22.705  0.9358 -0.3525 -0.0000
              Bcc     0.2604   138.918    49.570    46.338  0.3525  0.9358  0.0000
 
              Baa    -3.3752   244.224    87.145    81.464  0.9636  0.2675  0.0000
     3 O(17)  Bbb     0.8352   -60.434   -21.564   -20.159 -0.2675  0.9636 -0.0000
              Bcc     2.5400  -183.790   -65.581   -61.306  0.0000  0.0000  1.0000
 

 ---------------------------------------------------------------------------------

 PrsmSu:  requested number of processors reduced to:  21 ShMem   1 Linda.
 No NMR shielding tensors so no spin-rotation constants.
 Leave Link  601 at Fri Apr 16 23:13:10 2021, MaxMem=   104857600 cpu:             142.7 elap:               3.3
 (Enter /s/ls4/users/knvvv/bin/g16sse/l801.exe)
 DoSCS=F DFT=T ScalE2(SS,OS)=  1.000000  1.000000
 Range of M.O.s used for correlation:     1   157
 NBasis=   157 NAE=    14 NBE=    12 NFC=     0 NFV=     0
 NROrb=    157 NOA=    14 NOB=    12 NVA=   143 NVB=   145

 **** Warning!!: The largest alpha MO coefficient is  0.10372070D+02


 **** Warning!!: The largest beta MO coefficient is  0.10376339D+02

 Leave Link  801 at Fri Apr 16 23:13:10 2021, MaxMem=   104857600 cpu:               3.6 elap:               0.1
 (Enter /s/ls4/users/knvvv/bin/g16sse/l914.exe)
 UHF ground state
 Doing stability rather than CIS.
 Two-electron integrals replicated using symmetry.
 MDV=   104857600 DFT=T DoStab=T Mixed=T DoRPA=F DoScal=F NonHer=F
 Making orbital integer symmetry assigments:
 Orbital symmetries:
 Alpha Orbitals:
       Occupied  (A') (A') (A') (A') (A") (A') (A') (A') (A') (A")
                 (A') (A') (A") (A')
       Virtual   (A') (A') (A') (A") (A') (A") (A') (A') (A') (A")
                 (A') (A") (A') (A') (A') (A") (A') (A') (A") (A')
                 (A') (A") (A') (A") (A') (A") (A') (A') (A') (A")
                 (A') (A") (A') (A') (A") (A') (A") (A') (A") (A')
                 (A') (A') (A") (A') (A') (A") (A') (A') (A") (A')
                 (A') (A") (A') (A") (A') (A') (A") (A') (A") (A')
                 (A') (A") (A') (A") (A') (A") (A') (A") (A') (A")
                 (A') (A') (A") (A') (A") (A') (A") (A') (A") (A')
                 (A') (A') (A") (A') (A") (A') (A') (A') (A") (A')
                 (A') (A") (A') (A') (A') (A") (A") (A') (A') (A")
                 (A") (A') (A') (A") (A') (A') (A') (A") (A') (A")
                 (A') (A') (A") (A') (A") (A') (A') (A") (A') (A")
                 (A') (A") (A') (A") (A') (A') (A") (A') (A') (A")
                 (A') (A") (A') (A') (A') (A') (A") (A') (A') (A')
                 (A') (A') (A')
 Beta  Orbitals:
       Occupied  (A') (A') (A') (A') (A") (A') (A') (A') (A') (A')
                 (A") (A')
       Virtual   (A') (A") (A') (A') (A') (A') (A") (A') (A") (A')
                 (A") (A') (A') (A") (A') (A') (A') (A") (A') (A')
                 (A") (A') (A') (A") (A') (A") (A') (A") (A') (A')
                 (A") (A') (A') (A') (A") (A') (A") (A') (A") (A')
                 (A") (A') (A') (A') (A") (A') (A') (A") (A') (A')
                 (A") (A') (A') (A") (A') (A") (A') (A') (A") (A')
                 (A") (A') (A') (A") (A') (A") (A') (A") (A') (A")
                 (A') (A") (A') (A") (A') (A") (A') (A') (A") (A')
                 (A") (A') (A') (A') (A") (A') (A") (A') (A') (A')
                 (A") (A') (A') (A") (A') (A') (A') (A") (A") (A')
                 (A') (A") (A") (A') (A') (A") (A') (A') (A') (A")
                 (A') (A') (A") (A') (A") (A') (A") (A') (A') (A")
                 (A') (A") (A') (A') (A") (A') (A") (A') (A") (A')
                 (A') (A") (A') (A') (A") (A') (A') (A') (A") (A')
                 (A') (A') (A') (A') (A')
    12 initial guesses have been made.
 Convergence on wavefunction:    0.001000000000000
 Davidson Disk Diagonalization:  ConvIn= 1.00D-03 SkipCon=T Conv= 1.00D-03.
 Max sub-space:  2000 roots to seek:    12 dimension of matrix:         3742
 Iteration     1 Dimension    12 NMult     0 NNew     12
 Estimated number of processors is:   20
 CISAX will form     1 AO SS matrices at one time.
 NMat=     1 NSing=     1 JSym2X= 2.
 FoFJK:  IHMeth= 1 ICntrl=       0 DoSepK=F KAlg= 0 I1Cent=           0 FoldK=F
 IRaf= 970000000 NMat=       1 IRICut=       1 DoRegI=T DoRafI=F ISym2E= 2 IDoP0=0 IntGTp=1.
 FoFCou: FMM=F IPFlag=           0 FMFlag=      100000 FMFlg1=           0
         NFxFlg=           0 DoJE=F BraDBF=F KetDBF=F FulRan=T
         wScrn=  0.000000 ICntrl=         0 IOpCl=  1 I1Cent=           0 NGrid=           0
         NMat0=    1 NMatS0=      1 NMatT0=    0 NMatD0=    1 NMtDS0=    0 NMtDT0=    0
 Integrals replicated using symmetry in FoFCou.
 CoulSu:  requested number of processors reduced to:  20 ShMem   1 Linda.
 NMat=     1 NSing=     1 JSym2X= 2.
 CoulSu:  requested number of processors reduced to:  20 ShMem   1 Linda.
 NMat=     1 NSing=     1 JSym2X= 2.
 CoulSu:  requested number of processors reduced to:  20 ShMem   1 Linda.
 NMat=     1 NSing=     1 JSym2X= 2.
 CoulSu:  requested number of processors reduced to:  20 ShMem   1 Linda.
 NMat=     1 NSing=     1 JSym2X= 2.
 CoulSu:  requested number of processors reduced to:  20 ShMem   1 Linda.
 NMat=     1 NSing=     1 JSym2X= 2.
 CoulSu:  requested number of processors reduced to:  20 ShMem   1 Linda.
 NMat=     1 NSing=     1 JSym2X= 2.
 CoulSu:  requested number of processors reduced to:  20 ShMem   1 Linda.
 NMat=     1 NSing=     1 JSym2X= 2.
 CoulSu:  requested number of processors reduced to:  20 ShMem   1 Linda.
 NMat=     1 NSing=     1 JSym2X= 2.
 CoulSu:  requested number of processors reduced to:  20 ShMem   1 Linda.
 NMat=     1 NSing=     1 JSym2X= 2.
 CoulSu:  requested number of processors reduced to:  20 ShMem   1 Linda.
 NMat=     1 NSing=     1 JSym2X= 2.
 CoulSu:  requested number of processors reduced to:  20 ShMem   1 Linda.
 NMat=     1 NSing=     1 JSym2X= 2.
 CoulSu:  requested number of processors reduced to:  20 ShMem   1 Linda.
 New state      1 was old state      6
 Excitation Energies [eV] at current iteration:
 Root      1 :     0.749526295545592
 Root      2 :     1.466178088338921
 Root      3 :     1.994839597661542
 Root      4 :     2.810817936031084
 Root      5 :     3.418995715868600
 Root      6 :     4.136263605952461
 Root      7 :     6.128683854530882
 Root      8 :     9.012488604249574
 Root      9 :     9.820866867527693
 Root     10 :     9.900499879153262
 Root     11 :     9.989364749713806
 Root     12 :    10.956666427467030
 Iteration     2 Dimension    24 NMult    12 NNew     12
 Estimated number of processors is:   20
 CISAX will form     1 AO SS matrices at one time.
 NMat=     1 NSing=     1 JSym2X= 2.
 CoulSu:  requested number of processors reduced to:  20 ShMem   1 Linda.
 NMat=     1 NSing=     1 JSym2X= 2.
 CoulSu:  requested number of processors reduced to:  20 ShMem   1 Linda.
 NMat=     1 NSing=     1 JSym2X= 2.
 CoulSu:  requested number of processors reduced to:  20 ShMem   1 Linda.
 NMat=     1 NSing=     1 JSym2X= 2.
 CoulSu:  requested number of processors reduced to:  20 ShMem   1 Linda.
 NMat=     1 NSing=     1 JSym2X= 2.
 CoulSu:  requested number of processors reduced to:  20 ShMem   1 Linda.
 NMat=     1 NSing=     1 JSym2X= 2.
 CoulSu:  requested number of processors reduced to:  20 ShMem   1 Linda.
 NMat=     1 NSing=     1 JSym2X= 2.
 CoulSu:  requested number of processors reduced to:  20 ShMem   1 Linda.
 NMat=     1 NSing=     1 JSym2X= 2.
 CoulSu:  requested number of processors reduced to:  20 ShMem   1 Linda.
 NMat=     1 NSing=     1 JSym2X= 2.
 CoulSu:  requested number of processors reduced to:  20 ShMem   1 Linda.
 NMat=     1 NSing=     1 JSym2X= 2.
 CoulSu:  requested number of processors reduced to:  20 ShMem   1 Linda.
 NMat=     1 NSing=     1 JSym2X= 2.
 CoulSu:  requested number of processors reduced to:  20 ShMem   1 Linda.
 NMat=     1 NSing=     1 JSym2X= 2.
 CoulSu:  requested number of processors reduced to:  20 ShMem   1 Linda.
 Root      1 not converged, maximum delta is    0.100815069347290
 Excitation Energies [eV] at current iteration:
 Root      1 :     0.247529799847147   Change is   -0.501996495698445
 Root      2 :     1.013735961274432   Change is   -0.452442127064489
 Root      3 :     1.762016000273145   Change is   -0.232823597388397
 Root      4 :     2.107185652183587   Change is   -0.703632283847497
 Root      5 :     3.287175710971620   Change is   -0.131820004896981
 Root      6 :     3.900637775321851   Change is   -0.235625830630610
 Root      7 :     5.784794211322043   Change is   -0.343889643208839
 Root      8 :     5.961190625896311   Change is   -3.051297978353263
 Root      9 :     9.200381305182871   Change is   -0.620485562344823
 Root     10 :     9.388838239577874   Change is   -0.511661639575389
 Root     11 :     9.805089849312184   Change is   -0.184274900401621
 Root     12 :     9.808435917588742   Change is   -1.148230509878292
 Iteration     3 Dimension    27 NMult    24 NNew      3
 Estimated number of processors is:   20
 CISAX will form     1 AO SS matrices at one time.
 NMat=     1 NSing=     1 JSym2X= 2.
 CoulSu:  requested number of processors reduced to:  20 ShMem   1 Linda.
 NMat=     1 NSing=     1 JSym2X= 2.
 CoulSu:  requested number of processors reduced to:  20 ShMem   1 Linda.
 NMat=     1 NSing=     1 JSym2X= 2.
 CoulSu:  requested number of processors reduced to:  20 ShMem   1 Linda.
 Root      1 not converged, maximum delta is    0.005078465089601
 Excitation Energies [eV] at current iteration:
 Root      1 :     0.239837135261135   Change is   -0.007692664586011
 Root      2 :     0.973316933439275   Change is   -0.040419027835157
 Root      3 :     1.748516012617441   Change is   -0.013499987655703
 Iteration     4 Dimension    30 NMult    27 NNew      3
 Estimated number of processors is:   20
 CISAX will form     1 AO SS matrices at one time.
 NMat=     1 NSing=     1 JSym2X= 2.
 CoulSu:  requested number of processors reduced to:  20 ShMem   1 Linda.
 NMat=     1 NSing=     1 JSym2X= 2.
 CoulSu:  requested number of processors reduced to:  20 ShMem   1 Linda.
 NMat=     1 NSing=     1 JSym2X= 2.
 CoulSu:  requested number of processors reduced to:  20 ShMem   1 Linda.
 Root      1 has converged.
 Excitation Energies [eV] at current iteration:
 Root      1 :     0.239667323531776   Change is   -0.000169811729359
 Root      2 :     0.970293430880099   Change is   -0.003023502559176
 Root      3 :     1.747731205501670   Change is   -0.000784807115771
 Convergence achieved on expansion vectors.
 ***********************************************************************
 Stability analysis using <AA,BB:AA,BB> singles matrix:
 ***********************************************************************
 1PDM for each excited state written to RWF  633
 Ground to excited state transition densities written to RWF  633

 Eigenvectors of the stability matrix:
 
 Eigenvector   1:  3.014-A"   Eigenvalue= 0.0088076  <S**2>=2.021
      9B -> 14B       -0.25844
     10B -> 14B        0.91909
     10B -> 21B       -0.10571
     11B -> 13B       -0.13509
     12B -> 14B       -0.20871
 The wavefunction is stable under the perturbations considered.
 Leave Link  914 at Fri Apr 16 23:14:36 2021, MaxMem=   104857600 cpu:            3464.1 elap:              86.3
 (Enter /s/ls4/users/knvvv/bin/g16sse/l508.exe)
 The wavefunction is already stable.
 Leave Link  508 at Fri Apr 16 23:14:37 2021, MaxMem=   104857600 cpu:               2.2 elap:               0.1
 (Enter /s/ls4/users/knvvv/bin/g16sse/l601.exe)
 Copying SCF densities to generalized density rwf, IOpCl= 1 IROHF=0.

 **********************************************************************

            Population analysis using the SCF density.

 **********************************************************************

 Orbital symmetries:
 Alpha Orbitals:
       Occupied  (A') (A') (A') (A') (A") (A') (A') (A') (A') (A")
                 (A') (A') (A") (A')
       Virtual   (A') (A') (A') (A") (A') (A") (A') (A') (A') (A")
                 (A') (A") (A') (A') (A') (A") (A') (A') (A") (A')
                 (A') (A") (A') (A") (A') (A") (A') (A') (A') (A")
                 (A') (A") (A') (A') (A") (A') (A") (A') (A") (A')
                 (A') (A') (A") (A') (A') (A") (A') (A') (A") (A')
                 (A') (A") (A') (A") (A') (A') (A") (A') (A") (A')
                 (A') (A") (A') (A") (A') (A") (A') (A") (A') (A")
                 (A') (A') (A") (A') (A") (A') (A") (A') (A") (A')
                 (A') (A') (A") (A') (A") (A') (A') (A') (A") (A')
                 (A') (A") (A') (A') (A') (A") (A") (A') (A') (A")
                 (A") (A') (A') (A") (A') (A') (A') (A") (A') (A")
                 (A') (A') (A") (A') (A") (A') (A') (A") (A') (A")
                 (A') (A") (A') (A") (A') (A') (A") (A') (A') (A")
                 (A') (A") (A') (A') (A') (A') (A") (A') (A') (A')
                 (A') (A') (A')
 Beta  Orbitals:
       Occupied  (A') (A') (A') (A') (A") (A') (A') (A') (A') (A')
                 (A") (A')
       Virtual   (A') (A") (A') (A') (A') (A') (A") (A') (A") (A')
                 (A") (A') (A') (A") (A') (A') (A') (A") (A') (A')
                 (A") (A') (A') (A") (A') (A") (A') (A") (A') (A')
                 (A") (A') (A') (A') (A") (A') (A") (A') (A") (A')
                 (A") (A') (A') (A') (A") (A') (A') (A") (A') (A')
                 (A") (A') (A') (A") (A') (A") (A') (A') (A") (A')
                 (A") (A') (A') (A") (A') (A") (A') (A") (A') (A")
                 (A') (A") (A') (A") (A') (A") (A') (A') (A") (A')
                 (A") (A') (A') (A') (A") (A') (A") (A') (A') (A')
                 (A") (A') (A') (A") (A') (A') (A') (A") (A") (A')
                 (A') (A") (A") (A') (A') (A") (A') (A') (A') (A")
                 (A') (A') (A") (A') (A") (A') (A") (A') (A') (A")
                 (A') (A") (A') (A') (A") (A') (A") (A') (A") (A')
                 (A') (A") (A') (A') (A") (A') (A') (A') (A") (A')
                 (A') (A') (A') (A') (A')
 The electronic state is 3-A".
 Alpha  occ. eigenvalues -- -102.67502 -19.78831  -9.82795  -7.55886  -7.54772
 Alpha  occ. eigenvalues --   -7.54760  -1.19801  -0.94113  -0.64422  -0.57652
 Alpha  occ. eigenvalues --   -0.52789  -0.43858  -0.41089  -0.41083
 Alpha virt. eigenvalues --    0.06676   0.16207   0.20609   0.20776   0.21185
 Alpha virt. eigenvalues --    0.26396   0.27230   0.29942   0.34408   0.34668
 Alpha virt. eigenvalues --    0.36186   0.37444   0.44898   0.57927   0.65693
 Alpha virt. eigenvalues --    0.66791   0.79852   0.87865   0.97235   0.98267
 Alpha virt. eigenvalues --    1.02565   1.10364   1.11655   1.16331   1.17887
 Alpha virt. eigenvalues --    1.18237   1.20338   1.22095   1.22310   1.22895
 Alpha virt. eigenvalues --    1.28804   1.31542   1.32204   1.33938   1.33995
 Alpha virt. eigenvalues --    1.35534   1.43112   1.54805   1.62794   1.71190
 Alpha virt. eigenvalues --    1.88368   1.93576   2.13853   2.14060   2.28393
 Alpha virt. eigenvalues --    2.29049   2.43393   2.53301   2.55769   2.80623
 Alpha virt. eigenvalues --    2.88977   3.04657   3.05114   3.15011   3.15849
 Alpha virt. eigenvalues --    3.20462   3.22059   3.24360   3.32812   3.35616
 Alpha virt. eigenvalues --    3.37611   3.52673   3.52972   3.55578   3.55582
 Alpha virt. eigenvalues --    3.57763   3.62986   3.68178   3.70890   3.78206
 Alpha virt. eigenvalues --    3.79149   3.84942   3.85233   3.86315   3.87317
 Alpha virt. eigenvalues --    3.87358   3.92926   3.94584   3.96812   3.98306
 Alpha virt. eigenvalues --    3.99963   4.21601   4.24084   4.34034   4.42596
 Alpha virt. eigenvalues --    4.51153   4.64400   4.80818   4.88952   5.07372
 Alpha virt. eigenvalues --    5.73385   5.78672   5.80997   6.35379   6.47541
 Alpha virt. eigenvalues --    6.56307   6.72196   7.09054   7.27151   7.62206
 Alpha virt. eigenvalues --    7.89088   7.90294   8.01892   8.14974   8.30427
 Alpha virt. eigenvalues --    8.48935   8.66311   8.66329   8.67808   8.70361
 Alpha virt. eigenvalues --    8.71065   9.13624   9.13778   9.61743   9.98659
 Alpha virt. eigenvalues --   10.20122  10.30159  10.62321  10.63233  10.65014
 Alpha virt. eigenvalues --   10.65420  10.70499  10.74667  10.82903  10.83117
 Alpha virt. eigenvalues --   11.07286  11.21321  11.33595  11.47775  11.64955
 Alpha virt. eigenvalues --   11.68761  12.12278  12.27142  13.06750  13.69850
 Alpha virt. eigenvalues --   28.59655  42.01466  42.01493  42.12873  47.29949
 Alpha virt. eigenvalues --   98.38060 250.29276 524.26293
  Beta  occ. eigenvalues -- -102.66906 -19.75729  -9.82614  -7.54630  -7.54492
  Beta  occ. eigenvalues --   -7.54310  -1.06379  -0.90544  -0.55693  -0.42685
  Beta  occ. eigenvalues --   -0.40125  -0.39848
  Beta virt. eigenvalues --   -0.17643  -0.14533   0.06721   0.16832   0.20206
  Beta virt. eigenvalues --    0.21347   0.21408   0.26864   0.27249   0.31291
  Beta virt. eigenvalues --    0.34120   0.35770   0.36745   0.37388   0.45345
  Beta virt. eigenvalues --    0.58748   0.65161   0.67684   0.80596   0.87887
  Beta virt. eigenvalues --    0.99462   0.99748   1.03007   1.11127   1.12269
  Beta virt. eigenvalues --    1.17475   1.18351   1.18861   1.20796   1.22901
  Beta virt. eigenvalues --    1.23629   1.23948   1.30803   1.33954   1.34053
  Beta virt. eigenvalues --    1.34407   1.35683   1.37014   1.44682   1.55621
  Beta virt. eigenvalues --    1.63118   1.71483   1.89843   1.93513   2.12780
  Beta virt. eigenvalues --    2.15085   2.28203   2.28481   2.43546   2.53305
  Beta virt. eigenvalues --    2.55430   2.80566   2.90147   3.05125   3.06041
  Beta virt. eigenvalues --    3.16047   3.18237   3.22546   3.22793   3.26678
  Beta virt. eigenvalues --    3.34271   3.37543   3.39131   3.54151   3.54452
  Beta virt. eigenvalues --    3.55993   3.56011   3.58693   3.64023   3.72421
  Beta virt. eigenvalues --    3.76193   3.81391   3.82501   3.87442   3.87701
  Beta virt. eigenvalues --    3.88265   3.88512   3.89200   3.93980   3.95211
  Beta virt. eigenvalues --    4.00202   4.00915   4.01931   4.22552   4.24974
  Beta virt. eigenvalues --    4.36644   4.44355   4.53555   4.65744   4.81923
  Beta virt. eigenvalues --    4.98177   5.09607   5.73327   5.76295   5.79128
  Beta virt. eigenvalues --    6.33566   6.43091   6.52491   6.68975   7.03092
  Beta virt. eigenvalues --    7.17641   7.58915   7.81362   7.85322   7.96254
  Beta virt. eigenvalues --    8.08962   8.25206   8.48604   8.62062   8.70530
  Beta virt. eigenvalues --    8.71736   8.75819   8.75831   9.17154   9.17830
  Beta virt. eigenvalues --    9.56839  10.07580  10.20189  10.33125  10.65261
  Beta virt. eigenvalues --   10.65947  10.74508  10.79250  10.81731  10.83140
  Beta virt. eigenvalues --   10.97068  10.98731  11.11048  11.41423  11.41555
  Beta virt. eigenvalues --   11.60882  11.86097  11.91716  12.36639  12.37384
  Beta virt. eigenvalues --   13.22626  13.80390  28.63618  42.02259  42.02718
  Beta virt. eigenvalues --   42.15920  47.44640  98.39683 250.26888 524.25803
          Condensed to atoms (all electrons):
               1          2          3
     1  Cl  16.979265   0.247476  -0.057051
     2  H    0.247476   0.361461   0.153857
     3  O   -0.057051   0.153857   7.970710
          Atomic-Atomic Spin Densities.
               1          2          3
     1  Cl   0.519793   0.018262  -0.085797
     2  H    0.018262  -0.053624   0.007908
     3  O   -0.085797   0.007908   1.653086
 Mulliken charges and spin densities:
               1          2
     1  Cl  -0.169689   0.452257
     2  H    0.237205  -0.027454
     3  O   -0.067516   1.575197
 Sum of Mulliken charges =  -0.00000   2.00000
 Mulliken charges and spin densities with hydrogens summed into heavy atoms:
               1          2
     1  Cl  -0.169689   0.452257
     3  O    0.169689   1.547743
 Electronic spatial extent (au):  <R**2>=            163.3823
 Charge=             -0.0000 electrons
 Dipole moment (field-independent basis, Debye):
    X=             -0.5829    Y=              0.5892    Z=              0.0000  Tot=              0.8288
 Quadrupole moment (field-independent basis, Debye-Ang):
   XX=            -19.1799   YY=            -18.1397   ZZ=            -18.6289
   XY=             -0.7325   XZ=              0.0000   YZ=              0.0000
 Traceless Quadrupole moment (field-independent basis, Debye-Ang):
   XX=             -0.5304   YY=              0.5098   ZZ=              0.0206
   XY=             -0.7325   XZ=              0.0000   YZ=              0.0000
 Octapole moment (field-independent basis, Debye-Ang**2):
  XXX=             -0.3089  YYY=              1.2265  ZZZ=              0.0000  XYY=             -0.1275
  XXY=              0.9563  XXZ=              0.0000  XZZ=             -0.0338  YZZ=              2.5443
  YYZ=              0.0000  XYZ=              0.0000
 Hexadecapole moment (field-independent basis, Debye-Ang**3):
 XXXX=            -21.3357 YYYY=           -150.5364 ZZZZ=            -19.4899 XXXY=              0.0160
 XXXZ=              0.0000 YYYX=             -0.6646 YYYZ=              0.0000 ZZZX=              0.0000
 ZZZY=              0.0000 XXYY=            -30.9968 XXZZ=             -6.8257 YYZZ=            -28.0478
 XXYZ=              0.0000 YYXZ=              0.0000 ZZXY=              0.0699
 N-N= 3.862983116913D+01 E-N=-1.351049859367D+03  KE= 5.350438506970D+02
                          Isotropic Fermi Contact Couplings
        Atom                 a.u.       MegaHertz       Gauss      10(-4) cm-1
     1  Cl(35)            -0.02169      -4.75477      -1.69662      -1.58602
     2  H(1)              -0.04231     -94.57106     -33.74531     -31.54551
     3  O(17)              0.16875     -51.14677     -18.25044     -17.06073
 PrsmSu:  requested number of processors reduced to:  21 ShMem   1 Linda.
 --------------------------------------------------------
       Center         ----  Spin Dipole Couplings  ----
                      3XX-RR        3YY-RR        3ZZ-RR
 --------------------------------------------------------
     1   Atom       -1.597968      2.979563     -1.381595
     2   Atom       -0.079377      0.212169     -0.132791
     3   Atom       -3.073867      0.533901      2.539965
 --------------------------------------------------------
                        XY            XZ            YZ
 --------------------------------------------------------
     1   Atom        0.816866      0.000000      0.000000
     2   Atom        0.127962      0.000000      0.000000
     3   Atom       -1.085255      0.000000      0.000000
 --------------------------------------------------------


 ---------------------------------------------------------------------------------
              Anisotropic Spin Dipole Couplings in Principal Axis System
 ---------------------------------------------------------------------------------

       Atom             a.u.   MegaHertz   Gauss  10(-4) cm-1        Axes

              Baa    -1.7394   -91.035   -32.483   -30.366  0.9853 -0.1706 -0.0000
     1 Cl(35) Bbb    -1.3816   -72.309   -25.802   -24.120  0.0000  0.0000  1.0000
              Bcc     3.1210   163.344    58.285    54.486  0.1706  0.9853  0.0000
 
              Baa    -0.1328   -70.851   -25.281   -23.633  0.0000  0.0000  1.0000
     2 H(1)   Bbb    -0.1276   -68.067   -24.288   -22.705  0.9358 -0.3525 -0.0000
              Bcc     0.2604   138.918    49.570    46.338  0.3525  0.9358  0.0000
 
              Baa    -3.3752   244.224    87.145    81.464  0.9636  0.2675  0.0000
     3 O(17)  Bbb     0.8352   -60.434   -21.564   -20.159 -0.2675  0.9636 -0.0000
              Bcc     2.5400  -183.790   -65.581   -61.306  0.0000  0.0000  1.0000
 

 ---------------------------------------------------------------------------------

 PrsmSu:  requested number of processors reduced to:  21 ShMem   1 Linda.
 No NMR shielding tensors so no spin-rotation constants.
 Leave Link  601 at Fri Apr 16 23:14:40 2021, MaxMem=   104857600 cpu:             151.3 elap:               3.5
 (Enter /s/ls4/users/knvvv/bin/g16sse/l9999.exe)

 Test job not archived.
 1\1\GINC-N152\Stability\UM062X\def2QZVP\Cl1H1O1(3)\KNVVV\16-Apr-2021\0
 \\#P M062X/Def2QZVP Integral=UltraFineGrid SCF=NoSymm Stable=(RExt, Op
 t) IOp(1/33=1)\\Database calculations.\\0,3\Cl,0,0.0188200301,-0.81730
 36775,0.\H,0,-0.470488317,0.5694793883,0.\O,0,0.0188200301,1.665580099
 5,0.\\Version=ES64L-G16RevA.03\State=3-A"\HF=-535.8749956\S2=2.016165\
 S2-1=0.\S2A=2.000092\RMSD=3.505e-09\Dipole=-0.2293204,0.2318144,0.\Qua
 drupole=-0.3943522,0.3790341,0.0153181,-0.5446095,0.,0.\PG=CS [SG(Cl1H
 1O1)]\\@


 THE MORE POWERFUL THE METHOD, THE MORE CATASTROPHIC THE ERRORS.
     -- M.D. KAMEN
 Job cpu time:       0 days  4 hours 14 minutes 57.4 seconds.
 Elapsed time:       0 days  0 hours  5 minutes 48.4 seconds.
 File lengths (MBytes):  RWF=    114 Int=      0 D2E=      0 Chk=      4 Scr=      1
 Normal termination of Gaussian 16 at Fri Apr 16 23:14:40 2021.
