 Entering Gaussian System, Link 0=/s/ls4/users/knvvv/bin/g16sse/g16
 Input=data/database/M062X--ma-TZVP--hexene_ABDE13.gjf
 Output=data/database/M062X--ma-TZVP--hexene_ABDE13.log
 Initial command:
 /s/ls4/users/knvvv/bin/g16sse/l1.exe "/s/ls4/users/knvvv/bin/scratch/Gau-47664.inp" -scrdir="/s/ls4/users/knvvv/bin/scratch/"
 Entering Link 1 = /s/ls4/users/knvvv/bin/g16sse/l1.exe PID=     47665.
  
 Copyright (c) 1988,1990,1992,1993,1995,1998,2003,2009,2016,
            Gaussian, Inc.  All Rights Reserved.
  
 This is part of the Gaussian(R) 16 program.  It is based on
 the Gaussian(R) 09 system (copyright 2009, Gaussian, Inc.),
 the Gaussian(R) 03 system (copyright 2003, Gaussian, Inc.),
 the Gaussian(R) 98 system (copyright 1998, Gaussian, Inc.),
 the Gaussian(R) 94 system (copyright 1995, Gaussian, Inc.),
 the Gaussian 92(TM) system (copyright 1992, Gaussian, Inc.),
 the Gaussian 90(TM) system (copyright 1990, Gaussian, Inc.),
 the Gaussian 88(TM) system (copyright 1988, Gaussian, Inc.),
 the Gaussian 86(TM) system (copyright 1986, Carnegie Mellon
 University), and the Gaussian 82(TM) system (copyright 1983,
 Carnegie Mellon University). Gaussian is a federally registered
 trademark of Gaussian, Inc.
  
 This software contains proprietary and confidential information,
 including trade secrets, belonging to Gaussian, Inc.
  
 This software is provided under written license and may be
 used, copied, transmitted, or stored only in accord with that
 written license.
  
 The following legend is applicable only to US Government
 contracts under FAR:
  
                    RESTRICTED RIGHTS LEGEND
  
 Use, reproduction and disclosure by the US Government is
 subject to restrictions as set forth in subparagraphs (a)
 and (c) of the Commercial Computer Software - Restricted
 Rights clause in FAR 52.227-19.
  
 Gaussian, Inc.
 340 Quinnipiac St., Bldg. 40, Wallingford CT 06492
  
  
 ---------------------------------------------------------------
 Warning -- This program may not be used in any manner that
 competes with the business of Gaussian, Inc. or will provide
 assistance to any competitor of Gaussian, Inc.  The licensee
 of this program is prohibited from giving any competitor of
 Gaussian, Inc. access to this program.  By using this program,
 the user acknowledges that Gaussian, Inc. is engaged in the
 business of creating and licensing software in the field of
 computational chemistry and represents and warrants to the
 licensee that it is not a competitor of Gaussian, Inc. and that
 it will not use this program in any manner prohibited above.
 ---------------------------------------------------------------
  

 Cite this work as:
 Gaussian 16, Revision A.03,
 M. J. Frisch, G. W. Trucks, H. B. Schlegel, G. E. Scuseria, 
 M. A. Robb, J. R. Cheeseman, G. Scalmani, V. Barone, 
 G. A. Petersson, H. Nakatsuji, X. Li, M. Caricato, A. V. Marenich, 
 J. Bloino, B. G. Janesko, R. Gomperts, B. Mennucci, H. P. Hratchian, 
 J. V. Ortiz, A. F. Izmaylov, J. L. Sonnenberg, D. Williams-Young, 
 F. Ding, F. Lipparini, F. Egidi, J. Goings, B. Peng, A. Petrone, 
 T. Henderson, D. Ranasinghe, V. G. Zakrzewski, J. Gao, N. Rega, 
 G. Zheng, W. Liang, M. Hada, M. Ehara, K. Toyota, R. Fukuda, 
 J. Hasegawa, M. Ishida, T. Nakajima, Y. Honda, O. Kitao, H. Nakai, 
 T. Vreven, K. Throssell, J. A. Montgomery, Jr., J. E. Peralta, 
 F. Ogliaro, M. J. Bearpark, J. J. Heyd, E. N. Brothers, K. N. Kudin, 
 V. N. Staroverov, T. A. Keith, R. Kobayashi, J. Normand, 
 K. Raghavachari, A. P. Rendell, J. C. Burant, S. S. Iyengar, 
 J. Tomasi, M. Cossi, J. M. Millam, M. Klene, C. Adamo, R. Cammi, 
 J. W. Ochterski, R. L. Martin, K. Morokuma, O. Farkas, 
 J. B. Foresman, and D. J. Fox, Gaussian, Inc., Wallingford CT, 2016.
 
 ******************************************
 Gaussian 16:  ES64L-G16RevA.03 25-Dec-2016
                18-Apr-2021 
 ******************************************
 %RWF=temp12_94615,70GB
 %nprocshared=48
 Will use up to   48 processors via shared memory.
 Default route: MaxDisk=80GB
 ----------------------------------------------------------------------
 #P M062X/GEN Integral=UltraFineGrid SCF=NoSymm Stable=(RExt, Opt) IOp(
 1/33=1)
 ----------------------------------------------------------------------
 1/33=1,38=1,172=1/1;
 2/12=2,17=6,18=5,40=1/2;
 3/5=7,11=2,25=1,30=1,74=-55,75=-5/1,2,3;
 4/9=2/1;
 5/5=2,38=5/2;
 6/7=2,8=2,9=2,10=2,28=1/1;
 8/6=1,10=90,11=11/1;
 9/8=-3,42=1,46=1/14;
 5/5=2,8=3,17=40,38=5/8(-2);
 6/7=2,8=2,9=2,10=2,28=1/1;
 99/5=1,9=1/99;
 Leave Link    1 at Sun Apr 18 08:11:07 2021, MaxMem=           0 cpu:               9.9 elap:               0.2
 (Enter /s/ls4/users/knvvv/bin/g16sse/l101.exe)
 ONIOM data not found on unit 2.
 ----------------------
 Database calculations.
 ----------------------
 TstMul:  ICh=     0
 TstMul:  Mul=     1
 TstMul:  ICh=     0
 TstMul:  Mul=     1
 Symbolic Z-matrix:
 Charge =  0 Multiplicity = 1
 C                     2.77559  -0.34669  -0.12293 
 C                     1.45257  -0.32747   0.62921 
 H                     3.34058   0.56966   0.04999 
 H                     3.40116  -1.18249   0.18772 
 H                     2.61624  -0.42972  -1.19769 
 H                     0.91419  -1.26015   0.45567 
 H                     1.65884  -0.2989    1.70405 
 C                     0.60765   0.84769   0.26793 
 C                    -0.60859   0.8466   -0.27074 
 H                     1.06799   1.81369   0.46195 
 H                    -1.06933   1.81181  -0.46774 
 C                    -1.453    -0.33002  -0.62842 
 C                    -2.77605  -0.34746   0.12371 
 H                    -0.91424  -1.26194  -0.45196 
 H                    -1.65922  -0.30487  -1.70335 
 H                    -3.40126  -1.18447  -0.18439 
 H                    -2.61672  -0.42709   1.19873 
 H                    -3.34141   0.56812  -0.05207 
 
 RdStrC is calling ZToCFu for IStruc=1 NZ=    18.
 PrtBox:  NBox=     2 Levels=  2 BoxLen=    8.00 SMaxX=       12.85
          Shift=            6.427442            2.384713            3.218871
 Box      1 Number                   0 centers from      1 to     10:
 Box      2 Number                   4 centers from     11 to     18:
 After GenITR:
 ITRead=  0  0  0  0  0  0  0  0  0  0  0  0  0  0  0  0  0  0
 MicOpt= -1 -1 -1 -1 -1 -1 -1 -1 -1 -1 -1 -1 -1 -1 -1 -1 -1 -1
 ITRead=  0  0  0  0  0  0  0  0  0  0  0  0  0  0  0  0  0  0
 MicOpt= -1 -1 -1 -1 -1 -1 -1 -1 -1 -1 -1 -1 -1 -1 -1 -1 -1 -1
 NAtoms=     18 NQM=       18 NQMF=       0 NMMI=      0 NMMIF=      0
                NMic=       0 NMicF=      0.
                    Isotopes and Nuclear Properties:
 (Nuclear quadrupole moments (NQMom) in fm**2, nuclear magnetic moments (NMagM)
  in nuclear magnetons)

  Atom         1           2           3           4           5           6           7           8           9          10
 IAtWgt=          12          12           1           1           1           1           1          12          12           1
 AtmWgt=  12.0000000  12.0000000   1.0078250   1.0078250   1.0078250   1.0078250   1.0078250  12.0000000  12.0000000   1.0078250
 NucSpn=           0           0           1           1           1           1           1           0           0           1
 AtZEff=  -0.0000000  -0.0000000  -0.0000000  -0.0000000  -0.0000000  -0.0000000  -0.0000000  -0.0000000  -0.0000000  -0.0000000
 NQMom=    0.0000000   0.0000000   0.0000000   0.0000000   0.0000000   0.0000000   0.0000000   0.0000000   0.0000000   0.0000000
 NMagM=    0.0000000   0.0000000   2.7928460   2.7928460   2.7928460   2.7928460   2.7928460   0.0000000   0.0000000   2.7928460
 AtZNuc=   6.0000000   6.0000000   1.0000000   1.0000000   1.0000000   1.0000000   1.0000000   6.0000000   6.0000000   1.0000000

  Atom        11          12          13          14          15          16          17          18
 IAtWgt=           1          12          12           1           1           1           1           1
 AtmWgt=   1.0078250  12.0000000  12.0000000   1.0078250   1.0078250   1.0078250   1.0078250   1.0078250
 NucSpn=           1           0           0           1           1           1           1           1
 AtZEff=  -0.0000000  -0.0000000  -0.0000000  -0.0000000  -0.0000000  -0.0000000  -0.0000000  -0.0000000
 NQMom=    0.0000000   0.0000000   0.0000000   0.0000000   0.0000000   0.0000000   0.0000000   0.0000000
 NMagM=    2.7928460   0.0000000   0.0000000   2.7928460   2.7928460   2.7928460   2.7928460   2.7928460
 AtZNuc=   1.0000000   6.0000000   6.0000000   1.0000000   1.0000000   1.0000000   1.0000000   1.0000000
 No MM parameters found.
 Leave Link  101 at Sun Apr 18 08:11:07 2021, MaxMem=   104857600 cpu:               7.3 elap:               0.2
 (Enter /s/ls4/users/knvvv/bin/g16sse/l202.exe)
                          Input orientation:                          
 ---------------------------------------------------------------------
 Center     Atomic      Atomic             Coordinates (Angstroms)
 Number     Number       Type             X           Y           Z
 ---------------------------------------------------------------------
      1          6           0        2.775589   -0.346686   -0.122933
      2          6           0        1.452569   -0.327470    0.629207
      3          1           0        3.340580    0.569663    0.049988
      4          1           0        3.401163   -1.182486    0.187720
      5          1           0        2.616239   -0.429717   -1.197689
      6          1           0        0.914187   -1.260154    0.455665
      7          1           0        1.658835   -0.298898    1.704048
      8          6           0        0.607652    0.847686    0.267930
      9          6           0       -0.608590    0.846601   -0.270736
     10          1           0        1.067994    1.813688    0.461946
     11          1           0       -1.069333    1.811807   -0.467736
     12          6           0       -1.452999   -0.330019   -0.628417
     13          6           0       -2.776046   -0.347456    0.123711
     14          1           0       -0.914236   -1.261936   -0.451960
     15          1           0       -1.659220   -0.304866   -1.703353
     16          1           0       -3.401256   -1.184474   -0.184385
     17          1           0       -2.616720   -0.427094    1.198727
     18          1           0       -3.341411    0.568118   -0.052074
 ---------------------------------------------------------------------
                    Distance matrix (angstroms):
                    1          2          3          4          5
     1  C    0.000000
     2  C    1.521994   0.000000
     3  H    1.090327   2.169085   0.000000
     4  H    1.089224   2.173242   1.758598   0.000000
     5  H    1.089673   2.168440   1.755029   1.761285   0.000000
     6  H    2.152677   1.090812   3.065972   2.502574   2.513998
     7  H    2.141794   1.094827   2.513678   2.472991   3.058401
     8  C    2.505843   1.491777   2.755665   3.454234   2.795392
     9  C    3.591441   2.537068   3.971839   4.517244   3.589951
    10  H    2.815170   2.181841   2.623348   3.807353   3.191288
    11  H    4.422828   3.484219   4.610672   5.420401   4.375009
    12  C    4.258726   3.166062   4.924232   4.995565   4.110074
    13  C    5.557111   4.258769   6.185439   6.233721   5.552441
    14  H    3.815855   2.764763   4.659417   4.363275   3.703101
    15  H    4.708185   3.889033   5.370010   5.473011   4.307068
    16  H    6.233705   4.995599   6.970242   6.812589   6.148714
    17  H    5.552499   4.110157   6.148378   6.148794   5.755578
    18  H    6.185433   4.924273   6.682771   6.970252   6.148309
                    6          7          8          9         10
     6  H    0.000000
     7  H    1.742692   0.000000
     8  C    2.138270   2.117091   0.000000
     9  C    2.699060   3.217632   1.330191   0.000000
    10  H    3.077694   2.520899   1.087528   2.069544   0.000000
    11  H    3.771467   4.076104   2.069544   1.087527   2.330768
    12  C    2.764770   3.889071   2.537067   1.491776   3.484218
    13  C    3.815892   4.708290   3.591459   2.505838   4.422849
    14  H    2.041303   3.492350   2.699053   2.138268   3.771462
    15  H    3.492328   4.756039   3.217614   2.117095   4.076087
    16  H    4.363306   5.473111   4.517257   3.454230   5.420416
    17  H    3.703165   4.307221   3.589989   2.795390   4.375051
    18  H    4.659452   5.370116   3.971858   2.755663   4.610696
                   11         12         13         14         15
    11  H    0.000000
    12  C    2.181842   0.000000
    13  C    2.815155   1.521990   0.000000
    14  H    3.077694   1.090813   2.152674   0.000000
    15  H    2.520917   1.094827   2.141793   1.742690   0.000000
    16  H    3.807342   2.173238   1.089224   2.502572   2.472987
    17  H    3.191267   2.168438   1.089673   2.513997   3.058401
    18  H    2.623333   2.169083   1.090327   3.065972   2.513681
                   16         17         18
    16  H    0.000000
    17  H    1.761284   0.000000
    18  H    1.758598   1.755029   0.000000
 Stoichiometry    C6H12
 Framework group  C1[X(C6H12)]
 Deg. of freedom    48
 Full point group                 C1      NOp   1
 Largest Abelian subgroup         C1      NOp   1
 Largest concise Abelian subgroup C1      NOp   1
                         Standard orientation:                         
 ---------------------------------------------------------------------
 Center     Atomic      Atomic             Coordinates (Angstroms)
 Number     Number       Type             X           Y           Z
 ---------------------------------------------------------------------
      1          6           0        2.761656   -0.356870   -0.305908
      2          6           0        1.491059   -0.338502    0.531775
      3          1           0        3.337093    0.559100   -0.169222
      4          1           0        3.406076   -1.193266   -0.038375
      5          1           0        2.531831   -0.438257   -1.367955
      6          1           0        0.942127   -1.270811    0.392692
      7          1           0        1.767686   -0.311584    1.590736
      8          6           0        0.624543    0.837372    0.228679
      9          6           0       -0.624540    0.837351   -0.228704
     10          1           0        1.096963    1.802985    0.393380
     11          1           0       -1.096961    1.802948   -0.393497
     12          6           0       -1.491040   -0.338554   -0.531728
     13          6           0       -2.761676   -0.356839    0.305890
     14          1           0       -0.942112   -1.270848   -0.392523
     15          1           0       -1.767612   -0.311747   -1.590707
     16          1           0       -3.406081   -1.193263    0.038407
     17          1           0       -2.531908   -0.438121    1.367957
     18          1           0       -3.337109    0.559116    0.169084
 ---------------------------------------------------------------------
 Rotational constants (GHZ):           8.9717129           1.5091823           1.4376883
 Leave Link  202 at Sun Apr 18 08:11:07 2021, MaxMem=   104857600 cpu:               6.1 elap:               0.1
 (Enter /s/ls4/users/knvvv/bin/g16sse/l301.exe)
 General basis read from cards:  (5D, 7F)
 Centers:       3      4      5      6      7     10     11     14     15     16
 Centers:      17     18
 S 3 1.00
     Exponent=  3.4061341000D+01 Coefficients=  6.0251978000D-03
     Exponent=  5.1235746000D+00 Coefficients=  4.5021094000D-02
     Exponent=  1.1646626000D+00 Coefficients=  2.0189726000D-01
 S 1 1.00
     Exponent=  3.2723041000D-01 Coefficients=  1.0000000000D+00
 S 1 1.00
     Exponent=  1.0307241000D-01 Coefficients=  1.0000000000D+00
 P 1 1.00
     Exponent=  8.0000000000D-01 Coefficients=  1.0000000000D+00
 ****
 Centers:       1      2      8      9     12     13
 S 6 1.00
     Exponent=  1.3575349682D+04 Coefficients=  2.2245814352D-04
     Exponent=  2.0352333680D+03 Coefficients=  1.7232738252D-03
     Exponent=  4.6322562359D+02 Coefficients=  8.9255715314D-03
     Exponent=  1.3120019598D+02 Coefficients=  3.5727984502D-02
     Exponent=  4.2853015891D+01 Coefficients=  1.1076259931D-01
     Exponent=  1.5584185766D+01 Coefficients=  2.4295627626D-01
 S 2 1.00
     Exponent=  6.2067138508D+00 Coefficients=  4.1440263448D-01
     Exponent=  2.5764896527D+00 Coefficients=  2.3744968655D-01
 S 1 1.00
     Exponent=  5.7696339419D-01 Coefficients=  1.0000000000D+00
 S 1 1.00
     Exponent=  2.2972831358D-01 Coefficients=  1.0000000000D+00
 S 1 1.00
     Exponent=  9.5164440028D-02 Coefficients=  1.0000000000D+00
 S 1 1.00
     Exponent=  3.1721480009D-02 Coefficients=  1.0000000000D+00
 P 4 1.00
     Exponent=  3.4697232244D+01 Coefficients=  5.3333657805D-03
     Exponent=  7.9582622826D+00 Coefficients=  3.5864109092D-02
     Exponent=  2.3780826883D+00 Coefficients=  1.4215873329D-01
     Exponent=  8.1433208183D-01 Coefficients=  3.4270471845D-01
 P 1 1.00
     Exponent=  2.8887547253D-01 Coefficients=  1.0000000000D+00
 P 1 1.00
     Exponent=  1.0056823671D-01 Coefficients=  1.0000000000D+00
 P 1 1.00
     Exponent=  3.3522745570D-02 Coefficients=  1.0000000000D+00
 D 1 1.00
     Exponent=  1.0970000000D+00 Coefficients=  1.0000000000D+00
 D 1 1.00
     Exponent=  3.1800000000D-01 Coefficients=  1.0000000000D+00
 F 1 1.00
     Exponent=  7.6100000000D-01 Coefficients=  1.0000000000D+00
 ****
 Ernie: Thresh=  0.10000D-02 Tol=  0.10000D-05 Strict=F.
 There are   312 symmetry adapted cartesian basis functions of A   symmetry.
 There are   282 symmetry adapted basis functions of A   symmetry.
   282 basis functions,   426 primitive gaussians,   312 cartesian basis functions
    24 alpha electrons       24 beta electrons
       nuclear repulsion energy       231.7845611861 Hartrees.
 IExCor= 4336 DFT=T Ex+Corr=M062X ExCW=0 ScaHFX=  0.540000
 ScaDFX=  1.000000  1.000000  1.000000  1.000000 ScalE2=  1.000000  1.000000
 IRadAn=      5 IRanWt=     -1 IRanGd=            0 ICorTp=0 IEmpDi=  4
 NAtoms=   18 NActive=   18 NUniq=   18 SFac= 1.00D+00 NAtFMM=   60 NAOKFM=F Big=F
 Integral buffers will be    131072 words long.
 Raffenetti 2 integral format.
 Two-electron integral symmetry is turned on.
 Leave Link  301 at Sun Apr 18 08:11:07 2021, MaxMem=   104857600 cpu:               8.0 elap:               0.2
 (Enter /s/ls4/users/knvvv/bin/g16sse/l302.exe)
 NPDir=0 NMtPBC=     1 NCelOv=     1 NCel=       1 NClECP=     1 NCelD=      1
         NCelK=      1 NCelE2=     1 NClLst=     1 CellRange=     0.0.
 One-electron integrals computed using PRISM.
 One-electron integral symmetry used in STVInt
 PrsmSu:  requested number of processors reduced to:  13 ShMem   1 Linda.
 PrsmSu:  requested number of processors reduced to:  46 ShMem   1 Linda.
 NBasis=   282 RedAO= T EigKep=  4.59D-06  NBF=   282
 NBsUse=   282 1.00D-06 EigRej= -1.00D+00 NBFU=   282
 Precomputing XC quadrature grid using
 IXCGrd= 4 IRadAn=           5 IRanWt=          -1 IRanGd=           0 AccXCQ= 0.00D+00.
 Generated NRdTot=       0 NPtTot=           0 NUsed=           0 NTot=          32
 NSgBfM=   311   311   311   311   311 MxSgAt=    18 MxSgA2=    18.
 Leave Link  302 at Sun Apr 18 08:11:10 2021, MaxMem=   104857600 cpu:             132.4 elap:               2.8
 (Enter /s/ls4/users/knvvv/bin/g16sse/l303.exe)
 DipDrv:  MaxL=1.
 Leave Link  303 at Sun Apr 18 08:11:11 2021, MaxMem=   104857600 cpu:              12.8 elap:               0.3
 (Enter /s/ls4/users/knvvv/bin/g16sse/l401.exe)
 SCF N**3 symmetry information disabled.
 ExpMin= 3.17D-02 ExpMax= 1.36D+04 ExpMxC= 4.63D+02 IAcc=3 IRadAn=         5 AccDes= 0.00D+00
 Harris functional with IExCor= 1009 and IRadAn=       5 diagonalized for initial guess.
 HarFok:  IExCor= 1009 AccDes= 0.00D+00 IRadAn=         5 IDoV= 1 UseB2=F ITyADJ=14
 ICtDFT=  3500011 ScaDFX=  1.000000  1.000000  1.000000  1.000000
 FoFCou: FMM=F IPFlag=           0 FMFlag=      100000 FMFlg1=           0
         NFxFlg=           0 DoJE=T BraDBF=F KetDBF=T FulRan=T
         wScrn=  0.000000 ICntrl=       500 IOpCl=  0 I1Cent=   200000004 NGrid=           0
         NMat0=    1 NMatS0=      1 NMatT0=    0 NMatD0=    1 NMtDS0=    0 NMtDT0=    0
 Petite list used in FoFCou.
 CoulSu:  requested number of processors reduced to:  45 ShMem   1 Linda.
 CoulSu:  requested number of processors reduced to:  45 ShMem   1 Linda.
 Harris En= -235.811878486327    
 JPrj=0 DoOrth=F DoCkMO=F.
 Leave Link  401 at Sun Apr 18 08:11:12 2021, MaxMem=   104857600 cpu:              60.1 elap:               1.3
 (Enter /s/ls4/users/knvvv/bin/g16sse/l502.exe)
 Integral symmetry usage will be decided dynamically.
 Closed shell SCF:
 Using DIIS extrapolation, IDIIS=  1040.
 NGot=   104857600 LenX=   104644926 LenY=   104547141
 Requested convergence on RMS density matrix=1.00D-08 within 128 cycles.
 Requested convergence on MAX density matrix=1.00D-06.
 Requested convergence on             energy=1.00D-06.
 No special actions if energy rises.
 Fock matrices will be formed incrementally for  20 cycles.

 Cycle   1  Pass 1  IDiag  1:
 FoFJK:  IHMeth= 1 ICntrl=       0 DoSepK=F KAlg= 0 I1Cent=           0 FoldK=F
 IRaf= 960000000 NMat=       1 IRICut=       1 DoRegI=T DoRafI=F ISym2E= 0 IDoP0=0 IntGTp=1.
 FoFCou: FMM=F IPFlag=           0 FMFlag=      100000 FMFlg1=           0
         NFxFlg=           0 DoJE=F BraDBF=F KetDBF=F FulRan=T
         wScrn=  0.000000 ICntrl=         0 IOpCl=  0 I1Cent=           0 NGrid=           0
         NMat0=    1 NMatS0=      1 NMatT0=    0 NMatD0=    1 NMtDS0=    0 NMtDT0=    0
 Symmetry not used in FoFCou.
 CoulSu:  requested number of processors reduced to:  46 ShMem   1 Linda.
 E= -235.527030357713    
 DIIS: error= 2.96D-02 at cycle   1 NSaved=   1.
 NSaved= 1 IEnMin= 1 EnMin= -235.527030357713     IErMin= 1 ErrMin= 2.96D-02
 ErrMax= 2.96D-02  0.00D+00 EMaxC= 1.00D-01 BMatC= 2.89D-01 BMatP= 2.89D-01
 IDIUse=3 WtCom= 7.04D-01 WtEn= 2.96D-01
 Coeff-Com:  0.100D+01
 Coeff-En:   0.100D+01
 Coeff:      0.100D+01
 Gap=     0.362 Goal=   None    Shift=    0.000
 GapD=    0.362 DampG=1.000 DampE=0.500 DampFc=0.5000 IDamp=-1.
 Damping current iteration by 5.00D-01
 RMSDP=5.08D-03 MaxDP=3.39D-01              OVMax= 1.75D-01

 Cycle   2  Pass 1  IDiag  1:
 RMSU=  2.54D-03    CP:  9.86D-01
 CoulSu:  requested number of processors reduced to:  46 ShMem   1 Linda.
 E= -235.670405333628     Delta-E=       -0.143374975915 Rises=F Damp=T
 DIIS: error= 6.23D-03 at cycle   2 NSaved=   2.
 NSaved= 2 IEnMin= 2 EnMin= -235.670405333628     IErMin= 2 ErrMin= 6.23D-03
 ErrMax= 6.23D-03  0.00D+00 EMaxC= 1.00D-01 BMatC= 1.43D-02 BMatP= 2.89D-01
 IDIUse=3 WtCom= 9.38D-01 WtEn= 6.23D-02
 Coeff-Com: -0.106D+00 0.111D+01
 Coeff-En:   0.000D+00 0.100D+01
 Coeff:     -0.998D-01 0.110D+01
 Gap=     0.307 Goal=   None    Shift=    0.000
 RMSDP=2.15D-03 MaxDP=9.41D-02 DE=-1.43D-01 OVMax= 8.82D-02

 Cycle   3  Pass 1  IDiag  1:
 RMSU=  2.12D-03    CP:  9.88D-01  8.52D-01
 CoulSu:  requested number of processors reduced to:  46 ShMem   1 Linda.
 E= -235.804744023208     Delta-E=       -0.134338689581 Rises=F Damp=F
 DIIS: error= 2.80D-03 at cycle   3 NSaved=   3.
 NSaved= 3 IEnMin= 3 EnMin= -235.804744023208     IErMin= 3 ErrMin= 2.80D-03
 ErrMax= 2.80D-03  0.00D+00 EMaxC= 1.00D-01 BMatC= 1.28D-03 BMatP= 1.43D-02
 IDIUse=3 WtCom= 9.72D-01 WtEn= 2.80D-02
 Coeff-Com: -0.544D-01 0.212D+00 0.843D+00
 Coeff-En:   0.000D+00 0.000D+00 0.100D+01
 Coeff:     -0.529D-01 0.206D+00 0.847D+00
 Gap=     0.300 Goal=   None    Shift=    0.000
 RMSDP=3.52D-04 MaxDP=1.63D-02 DE=-1.34D-01 OVMax= 7.67D-03

 Cycle   4  Pass 1  IDiag  1:
 RMSU=  3.35D-04    CP:  9.78D-01  8.68D-01  9.78D-01
 CoulSu:  requested number of processors reduced to:  46 ShMem   1 Linda.
 E= -235.805934343297     Delta-E=       -0.001190320088 Rises=F Damp=F
 DIIS: error= 7.53D-04 at cycle   4 NSaved=   4.
 NSaved= 4 IEnMin= 4 EnMin= -235.805934343297     IErMin= 4 ErrMin= 7.53D-04
 ErrMax= 7.53D-04  0.00D+00 EMaxC= 1.00D-01 BMatC= 9.98D-05 BMatP= 1.28D-03
 IDIUse=3 WtCom= 9.92D-01 WtEn= 7.53D-03
 Coeff-Com: -0.118D-01 0.300D-01 0.254D+00 0.728D+00
 Coeff-En:   0.000D+00 0.000D+00 0.000D+00 0.100D+01
 Coeff:     -0.117D-01 0.298D-01 0.252D+00 0.730D+00
 Gap=     0.300 Goal=   None    Shift=    0.000
 RMSDP=8.49D-05 MaxDP=2.91D-03 DE=-1.19D-03 OVMax= 2.32D-03

 Cycle   5  Pass 1  IDiag  1:
 RMSU=  6.95D-05    CP:  9.78D-01  8.52D-01  9.86D-01  9.41D-01
 CoulSu:  requested number of processors reduced to:  46 ShMem   1 Linda.
 E= -235.806023252324     Delta-E=       -0.000088909027 Rises=F Damp=F
 DIIS: error= 1.61D-04 at cycle   5 NSaved=   5.
 NSaved= 5 IEnMin= 5 EnMin= -235.806023252324     IErMin= 5 ErrMin= 1.61D-04
 ErrMax= 1.61D-04  0.00D+00 EMaxC= 1.00D-01 BMatC= 9.34D-06 BMatP= 9.98D-05
 IDIUse=3 WtCom= 9.98D-01 WtEn= 1.61D-03
 Coeff-Com: -0.104D-02-0.328D-03 0.463D-01 0.273D+00 0.682D+00
 Coeff-En:   0.000D+00 0.000D+00 0.000D+00 0.000D+00 0.100D+01
 Coeff:     -0.104D-02-0.327D-03 0.462D-01 0.273D+00 0.682D+00
 Gap=     0.301 Goal=   None    Shift=    0.000
 RMSDP=3.08D-05 MaxDP=1.81D-03 DE=-8.89D-05 OVMax= 6.55D-04

 Cycle   6  Pass 1  IDiag  1:
 RMSU=  1.61D-05    CP:  9.77D-01  8.48D-01  9.85D-01  1.00D+00  1.19D+00
 CoulSu:  requested number of processors reduced to:  46 ShMem   1 Linda.
 E= -235.806031952179     Delta-E=       -0.000008699855 Rises=F Damp=F
 DIIS: error= 2.76D-05 at cycle   6 NSaved=   6.
 NSaved= 6 IEnMin= 6 EnMin= -235.806031952179     IErMin= 6 ErrMin= 2.76D-05
 ErrMax= 2.76D-05  0.00D+00 EMaxC= 1.00D-01 BMatC= 2.20D-07 BMatP= 9.34D-06
 IDIUse=1 WtCom= 1.00D+00 WtEn= 0.00D+00
 Coeff-Com:  0.103D-02-0.272D-02-0.172D-01-0.285D-01 0.715D-01 0.976D+00
 Coeff:      0.103D-02-0.272D-02-0.172D-01-0.285D-01 0.715D-01 0.976D+00
 Gap=     0.301 Goal=   None    Shift=    0.000
 RMSDP=1.26D-05 MaxDP=6.93D-04 DE=-8.70D-06 OVMax= 1.87D-04

 Cycle   7  Pass 1  IDiag  1:
 RMSU=  4.57D-06    CP:  9.76D-01  8.46D-01  9.85D-01  1.02D+00  1.29D+00
                    CP:  1.22D+00
 CoulSu:  requested number of processors reduced to:  46 ShMem   1 Linda.
 E= -235.806032249695     Delta-E=       -0.000000297516 Rises=F Damp=F
 DIIS: error= 5.83D-06 at cycle   7 NSaved=   7.
 NSaved= 7 IEnMin= 7 EnMin= -235.806032249695     IErMin= 7 ErrMin= 5.83D-06
 ErrMax= 5.83D-06  0.00D+00 EMaxC= 1.00D-01 BMatC= 8.24D-09 BMatP= 2.20D-07
 IDIUse=1 WtCom= 1.00D+00 WtEn= 0.00D+00
 Coeff-Com:  0.225D-03-0.541D-03-0.509D-02-0.154D-01-0.107D-01 0.183D+00
 Coeff-Com:  0.848D+00
 Coeff:      0.225D-03-0.541D-03-0.509D-02-0.154D-01-0.107D-01 0.183D+00
 Coeff:      0.848D+00
 Gap=     0.301 Goal=   None    Shift=    0.000
 RMSDP=1.94D-06 MaxDP=9.07D-05 DE=-2.98D-07 OVMax= 3.44D-05

 Cycle   8  Pass 1  IDiag  1:
 RMSU=  1.17D-06    CP:  9.76D-01  8.46D-01  9.85D-01  1.02D+00  1.30D+00
                    CP:  1.23D+00  1.05D+00
 CoulSu:  requested number of processors reduced to:  46 ShMem   1 Linda.
 E= -235.806032259883     Delta-E=       -0.000000010188 Rises=F Damp=F
 DIIS: error= 9.61D-07 at cycle   8 NSaved=   8.
 NSaved= 8 IEnMin= 8 EnMin= -235.806032259883     IErMin= 8 ErrMin= 9.61D-07
 ErrMax= 9.61D-07  0.00D+00 EMaxC= 1.00D-01 BMatC= 3.33D-10 BMatP= 8.24D-09
 IDIUse=1 WtCom= 1.00D+00 WtEn= 0.00D+00
 Coeff-Com: -0.173D-04 0.406D-04-0.344D-04-0.102D-02-0.350D-02-0.114D-01
 Coeff-Com:  0.130D+00 0.886D+00
 Coeff:     -0.173D-04 0.406D-04-0.344D-04-0.102D-02-0.350D-02-0.114D-01
 Coeff:      0.130D+00 0.886D+00
 Gap=     0.301 Goal=   None    Shift=    0.000
 RMSDP=4.24D-07 MaxDP=2.64D-05 DE=-1.02D-08 OVMax= 5.48D-06

 Cycle   9  Pass 1  IDiag  1:
 RMSU=  2.14D-07    CP:  9.76D-01  8.46D-01  9.85D-01  1.02D+00  1.30D+00
                    CP:  1.24D+00  1.09D+00  1.04D+00
 CoulSu:  requested number of processors reduced to:  46 ShMem   1 Linda.
 E= -235.806032260271     Delta-E=       -0.000000000387 Rises=F Damp=F
 DIIS: error= 3.44D-07 at cycle   9 NSaved=   9.
 NSaved= 9 IEnMin= 9 EnMin= -235.806032260271     IErMin= 9 ErrMin= 3.44D-07
 ErrMax= 3.44D-07  0.00D+00 EMaxC= 1.00D-01 BMatC= 3.68D-11 BMatP= 3.33D-10
 IDIUse=1 WtCom= 1.00D+00 WtEn= 0.00D+00
 Coeff-Com: -0.132D-04 0.303D-04 0.163D-03 0.199D-03-0.656D-03-0.999D-02
 Coeff-Com:  0.104D-01 0.287D+00 0.713D+00
 Coeff:     -0.132D-04 0.303D-04 0.163D-03 0.199D-03-0.656D-03-0.999D-02
 Coeff:      0.104D-01 0.287D+00 0.713D+00
 Gap=     0.301 Goal=   None    Shift=    0.000
 RMSDP=1.06D-07 MaxDP=6.27D-06 DE=-3.87D-10 OVMax= 2.45D-06

 Cycle  10  Pass 1  IDiag  1:
 RMSU=  4.96D-08    CP:  9.76D-01  8.46D-01  9.85D-01  1.02D+00  1.30D+00
                    CP:  1.23D+00  1.09D+00  1.07D+00  9.67D-01
 CoulSu:  requested number of processors reduced to:  46 ShMem   1 Linda.
 E= -235.806032260303     Delta-E=       -0.000000000032 Rises=F Damp=F
 DIIS: error= 1.28D-07 at cycle  10 NSaved=  10.
 NSaved=10 IEnMin=10 EnMin= -235.806032260303     IErMin=10 ErrMin= 1.28D-07
 ErrMax= 1.28D-07  0.00D+00 EMaxC= 1.00D-01 BMatC= 3.53D-12 BMatP= 3.68D-11
 IDIUse=1 WtCom= 1.00D+00 WtEn= 0.00D+00
 Coeff-Com: -0.250D-05 0.661D-05 0.506D-04 0.121D-03 0.376D-04-0.228D-02
 Coeff-Com: -0.790D-02 0.173D-01 0.238D+00 0.754D+00
 Coeff:     -0.250D-05 0.661D-05 0.506D-04 0.121D-03 0.376D-04-0.228D-02
 Coeff:     -0.790D-02 0.173D-01 0.238D+00 0.754D+00
 Gap=     0.301 Goal=   None    Shift=    0.000
 RMSDP=2.77D-08 MaxDP=1.95D-06 DE=-3.23D-11 OVMax= 4.51D-07

 Cycle  11  Pass 1  IDiag  1:
 RMSU=  1.26D-08    CP:  9.76D-01  8.46D-01  9.85D-01  1.02D+00  1.30D+00
                    CP:  1.23D+00  1.09D+00  1.07D+00  9.87D-01  1.16D+00
 CoulSu:  requested number of processors reduced to:  46 ShMem   1 Linda.
 E= -235.806032260305     Delta-E=       -0.000000000002 Rises=F Damp=F
 DIIS: error= 2.62D-08 at cycle  11 NSaved=  11.
 NSaved=11 IEnMin=11 EnMin= -235.806032260305     IErMin=11 ErrMin= 2.62D-08
 ErrMax= 2.62D-08  0.00D+00 EMaxC= 1.00D-01 BMatC= 1.70D-13 BMatP= 3.53D-12
 IDIUse=1 WtCom= 1.00D+00 WtEn= 0.00D+00
 Coeff-Com:  0.763D-06-0.143D-05-0.345D-05 0.636D-05 0.593D-04 0.314D-03
 Coeff-Com: -0.290D-02-0.205D-01 0.442D-02 0.196D+00 0.823D+00
 Coeff:      0.763D-06-0.143D-05-0.345D-05 0.636D-05 0.593D-04 0.314D-03
 Coeff:     -0.290D-02-0.205D-01 0.442D-02 0.196D+00 0.823D+00
 Gap=     0.301 Goal=   None    Shift=    0.000
 RMSDP=7.88D-09 MaxDP=4.39D-07 DE=-1.71D-12 OVMax= 1.99D-07

 SCF Done:  E(RM062X) =  -235.806032260     A.U. after   11 cycles
            NFock= 11  Conv=0.79D-08     -V/T= 2.0052
 KE= 2.345891056974D+02 PE=-1.009013940335D+03 EE= 3.068342411913D+02
 Leave Link  502 at Sun Apr 18 08:11:45 2021, MaxMem=   104857600 cpu:            1546.2 elap:              32.8
 (Enter /s/ls4/users/knvvv/bin/g16sse/l601.exe)
 Copying SCF densities to generalized density rwf, IOpCl= 0 IROHF=0.

 **********************************************************************

            Population analysis using the SCF density.

 **********************************************************************

 Orbital symmetries:
       Occupied  (A) (A) (A) (A) (A) (A) (A) (A) (A) (A) (A) (A)
                 (A) (A) (A) (A) (A) (A) (A) (A) (A) (A) (A) (A)
       Virtual   (A) (A) (A) (A) (A) (A) (A) (A) (A) (A) (A) (A)
                 (A) (A) (A) (A) (A) (A) (A) (A) (A) (A) (A) (A)
                 (A) (A) (A) (A) (A) (A) (A) (A) (A) (A) (A) (A)
                 (A) (A) (A) (A) (A) (A) (A) (A) (A) (A) (A) (A)
                 (A) (A) (A) (A) (A) (A) (A) (A) (A) (A) (A) (A)
                 (A) (A) (A) (A) (A) (A) (A) (A) (A) (A) (A) (A)
                 (A) (A) (A) (A) (A) (A) (A) (A) (A) (A) (A) (A)
                 (A) (A) (A) (A) (A) (A) (A) (A) (A) (A) (A) (A)
                 (A) (A) (A) (A) (A) (A) (A) (A) (A) (A) (A) (A)
                 (A) (A) (A) (A) (A) (A) (A) (A) (A) (A) (A) (A)
                 (A) (A) (A) (A) (A) (A) (A) (A) (A) (A) (A) (A)
                 (A) (A) (A) (A) (A) (A) (A) (A) (A) (A) (A) (A)
                 (A) (A) (A) (A) (A) (A) (A) (A) (A) (A) (A) (A)
                 (A) (A) (A) (A) (A) (A) (A) (A) (A) (A) (A) (A)
                 (A) (A) (A) (A) (A) (A) (A) (A) (A) (A) (A) (A)
                 (A) (A) (A) (A) (A) (A) (A) (A) (A) (A) (A) (A)
                 (A) (A) (A) (A) (A) (A) (A) (A) (A) (A) (A) (A)
                 (A) (A) (A) (A) (A) (A) (A) (A) (A) (A) (A) (A)
                 (A) (A) (A) (A) (A) (A) (A) (A) (A) (A) (A) (A)
                 (A) (A) (A) (A) (A) (A) (A) (A) (A) (A) (A) (A)
                 (A) (A) (A) (A) (A) (A) (A) (A) (A) (A) (A) (A)
                 (A) (A) (A) (A) (A) (A)
 The electronic state is 1-A.
 Alpha  occ. eigenvalues --  -10.53059 -10.53058 -10.52846 -10.52732 -10.52150
 Alpha  occ. eigenvalues --  -10.52150  -0.91259  -0.86768  -0.80697  -0.72334
 Alpha  occ. eigenvalues --   -0.69161  -0.60238  -0.55601  -0.51186  -0.51022
 Alpha  occ. eigenvalues --   -0.47833  -0.46709  -0.44006  -0.42857  -0.42065
 Alpha  occ. eigenvalues --   -0.39964  -0.39804  -0.37316  -0.29893
 Alpha virt. eigenvalues --    0.00182   0.01655   0.02012   0.02079   0.03404
 Alpha virt. eigenvalues --    0.04371   0.04392   0.05350   0.05364   0.05729
 Alpha virt. eigenvalues --    0.06423   0.07226   0.07280   0.08133   0.08793
 Alpha virt. eigenvalues --    0.10023   0.10525   0.10719   0.11543   0.11863
 Alpha virt. eigenvalues --    0.12982   0.13506   0.13747   0.14106   0.14556
 Alpha virt. eigenvalues --    0.18284   0.20458   0.20899   0.21502   0.21924
 Alpha virt. eigenvalues --    0.22872   0.23204   0.23255   0.23507   0.24584
 Alpha virt. eigenvalues --    0.24631   0.24904   0.25804   0.27711   0.27795
 Alpha virt. eigenvalues --    0.30037   0.32214   0.32929   0.34953   0.35536
 Alpha virt. eigenvalues --    0.35552   0.36657   0.38939   0.39501   0.40401
 Alpha virt. eigenvalues --    0.42007   0.43563   0.43819   0.44751   0.46936
 Alpha virt. eigenvalues --    0.48226   0.49344   0.50372   0.51717   0.51951
 Alpha virt. eigenvalues --    0.52202   0.52685   0.54355   0.55370   0.55756
 Alpha virt. eigenvalues --    0.57133   0.57323   0.57752   0.60190   0.60944
 Alpha virt. eigenvalues --    0.62694   0.62743   0.67654   0.69635   0.69941
 Alpha virt. eigenvalues --    0.70346   0.70671   0.72323   0.76444   0.77120
 Alpha virt. eigenvalues --    0.79197   0.79653   0.92852   0.94412   0.94833
 Alpha virt. eigenvalues --    0.95700   0.99042   1.03237   1.04162   1.04841
 Alpha virt. eigenvalues --    1.08010   1.10334   1.12471   1.12881   1.15139
 Alpha virt. eigenvalues --    1.15522   1.18519   1.20294   1.20778   1.23535
 Alpha virt. eigenvalues --    1.25264   1.28710   1.28918   1.32210   1.35573
 Alpha virt. eigenvalues --    1.38172   1.40365   1.54381   1.55487   1.57691
 Alpha virt. eigenvalues --    1.59150   1.59504   1.60271   1.60821   1.60979
 Alpha virt. eigenvalues --    1.63231   1.64197   1.64264   1.65242   1.65964
 Alpha virt. eigenvalues --    1.68656   1.72483   1.75681   1.75993   1.78682
 Alpha virt. eigenvalues --    1.81470   1.82313   1.83321   1.86061   1.86468
 Alpha virt. eigenvalues --    1.88049   1.91752   1.95735   1.95867   1.98014
 Alpha virt. eigenvalues --    2.00371   2.04521   2.05123   2.09390   2.11762
 Alpha virt. eigenvalues --    2.15845   2.20267   2.22821   2.26472   2.30435
 Alpha virt. eigenvalues --    2.31599   2.32183   2.35287   2.36450   2.36796
 Alpha virt. eigenvalues --    2.39569   2.39673   2.43107   2.44352   2.44656
 Alpha virt. eigenvalues --    2.45360   2.48584   2.50596   2.53074   2.55847
 Alpha virt. eigenvalues --    2.59136   2.60077   2.60325   2.62653   2.62765
 Alpha virt. eigenvalues --    2.63385   2.63744   2.67856   2.67988   2.68768
 Alpha virt. eigenvalues --    2.70473   2.72175   2.74543   2.79674   2.80312
 Alpha virt. eigenvalues --    2.83232   2.86478   2.89052   2.89268   2.90178
 Alpha virt. eigenvalues --    2.91719   2.96739   2.98377   3.03730   3.06709
 Alpha virt. eigenvalues --    3.08035   3.08385   3.11590   3.13222   3.14844
 Alpha virt. eigenvalues --    3.16548   3.18561   3.20230   3.21278   3.25196
 Alpha virt. eigenvalues --    3.25472   3.26025   3.26575   3.28666   3.28802
 Alpha virt. eigenvalues --    3.30983   3.35332   3.37621   3.38691   3.38901
 Alpha virt. eigenvalues --    3.39964   3.42288   3.44126   3.46909   3.48245
 Alpha virt. eigenvalues --    3.50947   3.54841   3.55417   3.56263   3.57533
 Alpha virt. eigenvalues --    3.61306   3.69084   3.75254   3.77053   3.79659
 Alpha virt. eigenvalues --    3.84637   3.86664   3.89694   3.91386   3.93438
 Alpha virt. eigenvalues --    3.96733   3.99140   4.01364   4.02594   4.02935
 Alpha virt. eigenvalues --    4.05575   4.15393   4.21011   4.28393   4.32978
 Alpha virt. eigenvalues --    4.37826   4.38095   4.47707   4.47975   4.51014
 Alpha virt. eigenvalues --    4.54122   4.54662   4.57279   4.63917   4.67309
 Alpha virt. eigenvalues --    4.71689   4.71804   4.77972   4.83619   4.85987
 Alpha virt. eigenvalues --    5.02080   5.34267  22.44816  22.45148  22.45224
 Alpha virt. eigenvalues --   22.54966  22.66953  23.02977
          Condensed to atoms (all electrons):
               1          2          3          4          5          6
     1  C    5.150335   0.147132   0.444632   0.403128   0.438758  -0.001910
     2  C    0.147132   5.557074  -0.015564  -0.067661  -0.068243   0.417595
     3  H    0.444632  -0.015564   0.539603  -0.025277  -0.029406   0.006519
     4  H    0.403128  -0.067661  -0.025277   0.535612  -0.022840  -0.004890
     5  H    0.438758  -0.068243  -0.029406  -0.022840   0.537284  -0.003650
     6  H   -0.001910   0.417595   0.006519  -0.004890  -0.003650   0.564176
     7  H   -0.041026   0.465624  -0.004342  -0.003134   0.007148  -0.026362
     8  C   -0.128197  -0.003154  -0.048489   0.049951  -0.018763  -0.144656
     9  C    0.059537   0.092163   0.006162  -0.007914   0.008975   0.084783
    10  H    0.023405  -0.022026  -0.000522  -0.000135   0.001085   0.003507
    11  H    0.000891  -0.020971   0.000039   0.000018  -0.000062   0.000476
    12  C    0.012112  -0.228222  -0.012380   0.003867   0.008455  -0.024916
    13  C    0.001870   0.012113   0.000661  -0.000392   0.001656   0.004661
    14  H    0.004664  -0.024916   0.000005   0.000102   0.000074   0.002830
    15  H    0.000658  -0.005434  -0.000003  -0.000022  -0.000119   0.000180
    16  H   -0.000392   0.003866  -0.000000  -0.000000  -0.000001   0.000102
    17  H    0.001656   0.008454   0.000000  -0.000001  -0.000004   0.000074
    18  H    0.000661  -0.012380   0.000000  -0.000000   0.000000   0.000005
               7          8          9         10         11         12
     1  C   -0.041026  -0.128197   0.059537   0.023405   0.000891   0.012112
     2  C    0.465624  -0.003154   0.092163  -0.022026  -0.020971  -0.228222
     3  H   -0.004342  -0.048489   0.006162  -0.000522   0.000039  -0.012380
     4  H   -0.003134   0.049951  -0.007914  -0.000135   0.000018   0.003867
     5  H    0.007148  -0.018763   0.008975   0.001085  -0.000062   0.008455
     6  H   -0.026362  -0.144656   0.084783   0.003507   0.000476  -0.024916
     7  H    0.556340  -0.065969  -0.023129  -0.002245  -0.000300  -0.005433
     8  C   -0.065969   5.824472   0.023165   0.334800   0.028483   0.092180
     9  C   -0.023129   0.023165   5.824479   0.028486   0.334801  -0.003170
    10  H   -0.002245   0.334800   0.028486   0.514925  -0.005528  -0.020970
    11  H   -0.000300   0.028483   0.334801  -0.005528   0.514923  -0.022021
    12  C   -0.005433   0.092180  -0.003170  -0.020970  -0.022021   5.557055
    13  C    0.000658   0.059527  -0.128185   0.000890   0.023403   0.147140
    14  H    0.000180   0.084777  -0.144650   0.000476   0.003507   0.417598
    15  H   -0.000217  -0.023133  -0.065970  -0.000300  -0.002244   0.465627
    16  H   -0.000022  -0.007913   0.049951   0.000018  -0.000135  -0.067662
    17  H   -0.000119   0.008971  -0.018762  -0.000062   0.001085  -0.068239
    18  H   -0.000003   0.006159  -0.048485   0.000039  -0.000522  -0.015562
              13         14         15         16         17         18
     1  C    0.001870   0.004664   0.000658  -0.000392   0.001656   0.000661
     2  C    0.012113  -0.024916  -0.005434   0.003866   0.008454  -0.012380
     3  H    0.000661   0.000005  -0.000003  -0.000000   0.000000   0.000000
     4  H   -0.000392   0.000102  -0.000022  -0.000000  -0.000001  -0.000000
     5  H    0.001656   0.000074  -0.000119  -0.000001  -0.000004   0.000000
     6  H    0.004661   0.002830   0.000180   0.000102   0.000074   0.000005
     7  H    0.000658   0.000180  -0.000217  -0.000022  -0.000119  -0.000003
     8  C    0.059527   0.084777  -0.023133  -0.007913   0.008971   0.006159
     9  C   -0.128185  -0.144650  -0.065970   0.049951  -0.018762  -0.048485
    10  H    0.000890   0.000476  -0.000300   0.000018  -0.000062   0.000039
    11  H    0.023403   0.003507  -0.002244  -0.000135   0.001085  -0.000522
    12  C    0.147140   0.417598   0.465627  -0.067662  -0.068239  -0.015562
    13  C    5.150329  -0.001915  -0.041023   0.403129   0.438758   0.444628
    14  H   -0.001915   0.564177  -0.026363  -0.004890  -0.003650   0.006520
    15  H   -0.041023  -0.026363   0.556340  -0.003135   0.007148  -0.004342
    16  H    0.403129  -0.004890  -0.003135   0.535612  -0.022840  -0.025277
    17  H    0.438758  -0.003650   0.007148  -0.022840   0.537282  -0.029406
    18  H    0.444628   0.006520  -0.004342  -0.025277  -0.029406   0.539604
 Mulliken charges:
               1
     1  C   -0.517912
     2  C   -0.235450
     3  H    0.138362
     4  H    0.139590
     5  H    0.139652
     6  H    0.121475
     7  H    0.142350
     8  C   -0.072212
     9  C   -0.072237
    10  H    0.144158
    11  H    0.144158
    12  C   -0.235456
    13  C   -0.517906
    14  H    0.121474
    15  H    0.142350
    16  H    0.139590
    17  H    0.139653
    18  H    0.138362
 Sum of Mulliken charges =  -0.00000
 Mulliken charges with hydrogens summed into heavy atoms:
               1
     1  C   -0.100308
     2  C    0.028375
     8  C    0.071946
     9  C    0.071921
    12  C    0.028368
    13  C   -0.100302
 Electronic spatial extent (au):  <R**2>=            915.5520
 Charge=             -0.0000 electrons
 Dipole moment (field-independent basis, Debye):
    X=              0.0000    Y=             -0.3264    Z=             -0.0000  Tot=              0.3264
 Quadrupole moment (field-independent basis, Debye-Ang):
   XX=            -39.3992   YY=            -39.5197   ZZ=            -41.3901
   XY=              0.0001   XZ=              1.5120   YZ=             -0.0001
 Traceless Quadrupole moment (field-independent basis, Debye-Ang):
   XX=              0.7038   YY=              0.5833   ZZ=             -1.2871
   XY=              0.0001   XZ=              1.5120   YZ=             -0.0001
 Octapole moment (field-independent basis, Debye-Ang**2):
  XXX=              0.0003  YYY=              0.7338  ZZZ=              0.0001  XYY=              0.0001
  XXY=              0.5718  XXZ=              0.0000  XZZ=             -0.0001  YZZ=             -1.8143
  YYZ=             -0.0002  XYZ=              0.9171
 Hexadecapole moment (field-independent basis, Debye-Ang**3):
 XXXX=          -1019.9504 YYYY=           -161.3622 ZZZZ=           -113.7747 XXXY=              0.0004
 XXXZ=             10.9301 YYYX=              0.0005 YYYZ=             -0.0009 ZZZX=              3.0682
 ZZZY=              0.0005 XXYY=           -187.9986 XXZZ=           -189.3223 YYZZ=            -51.3077
 XXYZ=             -0.0005 YYXZ=              3.3914 ZZXY=             -0.0000
 N-N= 2.317845611861D+02 E-N=-1.009013940373D+03  KE= 2.345891056974D+02
 PrsmSu:  requested number of processors reduced to:  47 ShMem   1 Linda.
 No NMR shielding tensors so no spin-rotation constants.
 Leave Link  601 at Sun Apr 18 08:11:46 2021, MaxMem=   104857600 cpu:              57.8 elap:               1.3
 (Enter /s/ls4/users/knvvv/bin/g16sse/l801.exe)
 DoSCS=F DFT=T ScalE2(SS,OS)=  1.000000  1.000000
 Range of M.O.s used for correlation:     1   282
 NBasis=   282 NAE=    24 NBE=    24 NFC=     0 NFV=     0
 NROrb=    282 NOA=    24 NOB=    24 NVA=   258 NVB=   258

 **** Warning!!: The largest alpha MO coefficient is  0.19597612D+03

 Leave Link  801 at Sun Apr 18 08:11:46 2021, MaxMem=   104857600 cpu:               3.7 elap:               0.1
 (Enter /s/ls4/users/knvvv/bin/g16sse/l914.exe)
 RHF ground state
 Doing stability rather than CIS.
 Two-electron integrals replicated using symmetry.
 MDV=   104857600 DFT=T DoStab=T Mixed=T DoRPA=F DoScal=F NonHer=F
 Making orbital integer symmetry assigments:
 Orbital symmetries:
       Occupied  (A) (A) (A) (A) (A) (A) (A) (A) (A) (A) (A) (A)
                 (A) (A) (A) (A) (A) (A) (A) (A) (A) (A) (A) (A)
       Virtual   (A) (A) (A) (A) (A) (A) (A) (A) (A) (A) (A) (A)
                 (A) (A) (A) (A) (A) (A) (A) (A) (A) (A) (A) (A)
                 (A) (A) (A) (A) (A) (A) (A) (A) (A) (A) (A) (A)
                 (A) (A) (A) (A) (A) (A) (A) (A) (A) (A) (A) (A)
                 (A) (A) (A) (A) (A) (A) (A) (A) (A) (A) (A) (A)
                 (A) (A) (A) (A) (A) (A) (A) (A) (A) (A) (A) (A)
                 (A) (A) (A) (A) (A) (A) (A) (A) (A) (A) (A) (A)
                 (A) (A) (A) (A) (A) (A) (A) (A) (A) (A) (A) (A)
                 (A) (A) (A) (A) (A) (A) (A) (A) (A) (A) (A) (A)
                 (A) (A) (A) (A) (A) (A) (A) (A) (A) (A) (A) (A)
                 (A) (A) (A) (A) (A) (A) (A) (A) (A) (A) (A) (A)
                 (A) (A) (A) (A) (A) (A) (A) (A) (A) (A) (A) (A)
                 (A) (A) (A) (A) (A) (A) (A) (A) (A) (A) (A) (A)
                 (A) (A) (A) (A) (A) (A) (A) (A) (A) (A) (A) (A)
                 (A) (A) (A) (A) (A) (A) (A) (A) (A) (A) (A) (A)
                 (A) (A) (A) (A) (A) (A) (A) (A) (A) (A) (A) (A)
                 (A) (A) (A) (A) (A) (A) (A) (A) (A) (A) (A) (A)
                 (A) (A) (A) (A) (A) (A) (A) (A) (A) (A) (A) (A)
                 (A) (A) (A) (A) (A) (A) (A) (A) (A) (A) (A) (A)
                 (A) (A) (A) (A) (A) (A) (A) (A) (A) (A) (A) (A)
                 (A) (A) (A) (A) (A) (A) (A) (A) (A) (A) (A) (A)
                 (A) (A) (A) (A) (A) (A)
    24 initial guesses have been made.
 Convergence on wavefunction:    0.001000000000000
 Davidson Disk Diagonalization:  ConvIn= 1.00D-03 SkipCon=T Conv= 1.00D-03.
 Max sub-space:  2000 roots to seek:    24 dimension of matrix:        12384
 Iteration     1 Dimension    24 NMult     0 NNew     24
 Estimated number of processors is:   39
 CISAX will form     1 AO SS matrices at one time.
 NMat=     1 NSing=     1 JSym2X= 0.
 FoFJK:  IHMeth= 1 ICntrl=       0 DoSepK=F KAlg= 0 I1Cent=           0 FoldK=F
 IRaf= 960000000 NMat=       1 IRICut=       1 DoRegI=T DoRafI=F ISym2E= 0 IDoP0=0 IntGTp=1.
 FoFCou: FMM=F IPFlag=           0 FMFlag=      100000 FMFlg1=           0
         NFxFlg=           0 DoJE=F BraDBF=F KetDBF=F FulRan=T
         wScrn=  0.000000 ICntrl=         0 IOpCl=  0 I1Cent=           0 NGrid=           0
         NMat0=    1 NMatS0=      1 NMatT0=    0 NMatD0=    1 NMtDS0=    0 NMtDT0=    0
 Symmetry not used in FoFCou.
 CoulSu:  requested number of processors reduced to:  46 ShMem   1 Linda.
 NMat=     1 NSing=     1 JSym2X= 0.
 CoulSu:  requested number of processors reduced to:  46 ShMem   1 Linda.
 NMat=     1 NSing=     1 JSym2X= 0.
 CoulSu:  requested number of processors reduced to:  46 ShMem   1 Linda.
 NMat=     1 NSing=     1 JSym2X= 0.
 CoulSu:  requested number of processors reduced to:  46 ShMem   1 Linda.
 NMat=     1 NSing=     1 JSym2X= 0.
 CoulSu:  requested number of processors reduced to:  46 ShMem   1 Linda.
 NMat=     1 NSing=     1 JSym2X= 0.
 CoulSu:  requested number of processors reduced to:  46 ShMem   1 Linda.
 NMat=     1 NSing=     1 JSym2X= 0.
 CoulSu:  requested number of processors reduced to:  46 ShMem   1 Linda.
 NMat=     1 NSing=     1 JSym2X= 0.
 CoulSu:  requested number of processors reduced to:  46 ShMem   1 Linda.
 NMat=     1 NSing=     1 JSym2X= 0.
 CoulSu:  requested number of processors reduced to:  46 ShMem   1 Linda.
 NMat=     1 NSing=     1 JSym2X= 0.
 CoulSu:  requested number of processors reduced to:  46 ShMem   1 Linda.
 NMat=     1 NSing=     1 JSym2X= 0.
 CoulSu:  requested number of processors reduced to:  46 ShMem   1 Linda.
 NMat=     1 NSing=     1 JSym2X= 0.
 CoulSu:  requested number of processors reduced to:  46 ShMem   1 Linda.
 NMat=     1 NSing=     0 JSym2X= 0.
 CoulSu:  requested number of processors reduced to:  46 ShMem   1 Linda.
 NMat=     1 NSing=     0 JSym2X= 0.
 CoulSu:  requested number of processors reduced to:  46 ShMem   1 Linda.
 NMat=     1 NSing=     0 JSym2X= 0.
 CoulSu:  requested number of processors reduced to:  46 ShMem   1 Linda.
 NMat=     1 NSing=     0 JSym2X= 0.
 CoulSu:  requested number of processors reduced to:  46 ShMem   1 Linda.
 NMat=     1 NSing=     0 JSym2X= 0.
 CoulSu:  requested number of processors reduced to:  46 ShMem   1 Linda.
 NMat=     1 NSing=     0 JSym2X= 0.
 CoulSu:  requested number of processors reduced to:  46 ShMem   1 Linda.
 NMat=     1 NSing=     0 JSym2X= 0.
 CoulSu:  requested number of processors reduced to:  46 ShMem   1 Linda.
 NMat=     1 NSing=     0 JSym2X= 0.
 CoulSu:  requested number of processors reduced to:  46 ShMem   1 Linda.
 NMat=     1 NSing=     0 JSym2X= 0.
 CoulSu:  requested number of processors reduced to:  46 ShMem   1 Linda.
 NMat=     1 NSing=     0 JSym2X= 0.
 CoulSu:  requested number of processors reduced to:  46 ShMem   1 Linda.
 NMat=     1 NSing=     0 JSym2X= 0.
 CoulSu:  requested number of processors reduced to:  46 ShMem   1 Linda.
 NMat=     1 NSing=     0 JSym2X= 0.
 CoulSu:  requested number of processors reduced to:  46 ShMem   1 Linda.
 New state      1 was old state     20
 Excitation Energies [eV] at current iteration:
 Root      1 :     5.092651849242238
 Root      2 :     6.386633330757961
 Root      3 :     6.415059443499673
 Root      4 :     6.786110470600224
 Root      5 :     6.857153627207744
 Root      6 :     6.912531551687954
 Root      7 :     6.945644768240485
 Root      8 :     7.013681359204496
 Root      9 :     7.054984144466667
 Root     10 :     7.604107238373181
 Root     11 :     7.647376097346286
 Root     12 :     7.672341277229190
 Root     13 :     7.701125126182762
 Root     14 :     7.702745868977904
 Root     15 :     7.717763870927392
 Root     16 :     7.853118997301393
 Root     17 :     7.878237237794457
 Root     18 :     7.884177441096784
 Root     19 :     7.902588369836860
 Root     20 :     8.411839444722956
 Root     21 :     8.419744561634545
 Root     22 :     8.455569693657182
 Root     23 :     8.456902942103042
 Root     24 :    11.221899970025150
 Iteration     2 Dimension    48 NMult    24 NNew     24
 Estimated number of processors is:   39
 CISAX will form     1 AO SS matrices at one time.
 NMat=     1 NSing=     1 JSym2X= 0.
 CoulSu:  requested number of processors reduced to:  46 ShMem   1 Linda.
 NMat=     1 NSing=     1 JSym2X= 0.
 CoulSu:  requested number of processors reduced to:  46 ShMem   1 Linda.
 NMat=     1 NSing=     1 JSym2X= 0.
 CoulSu:  requested number of processors reduced to:  46 ShMem   1 Linda.
 NMat=     1 NSing=     1 JSym2X= 0.
 CoulSu:  requested number of processors reduced to:  46 ShMem   1 Linda.
 NMat=     1 NSing=     1 JSym2X= 0.
 CoulSu:  requested number of processors reduced to:  46 ShMem   1 Linda.
 NMat=     1 NSing=     1 JSym2X= 0.
 CoulSu:  requested number of processors reduced to:  46 ShMem   1 Linda.
 NMat=     1 NSing=     1 JSym2X= 0.
 CoulSu:  requested number of processors reduced to:  46 ShMem   1 Linda.
 NMat=     1 NSing=     1 JSym2X= 0.
 CoulSu:  requested number of processors reduced to:  46 ShMem   1 Linda.
 NMat=     1 NSing=     1 JSym2X= 0.
 CoulSu:  requested number of processors reduced to:  46 ShMem   1 Linda.
 NMat=     1 NSing=     1 JSym2X= 0.
 CoulSu:  requested number of processors reduced to:  46 ShMem   1 Linda.
 NMat=     1 NSing=     1 JSym2X= 0.
 CoulSu:  requested number of processors reduced to:  46 ShMem   1 Linda.
 NMat=     1 NSing=     1 JSym2X= 0.
 CoulSu:  requested number of processors reduced to:  46 ShMem   1 Linda.
 NMat=     1 NSing=     0 JSym2X= 0.
 CoulSu:  requested number of processors reduced to:  46 ShMem   1 Linda.
 NMat=     1 NSing=     0 JSym2X= 0.
 CoulSu:  requested number of processors reduced to:  46 ShMem   1 Linda.
 NMat=     1 NSing=     0 JSym2X= 0.
 CoulSu:  requested number of processors reduced to:  46 ShMem   1 Linda.
 NMat=     1 NSing=     0 JSym2X= 0.
 CoulSu:  requested number of processors reduced to:  46 ShMem   1 Linda.
 NMat=     1 NSing=     0 JSym2X= 0.
 CoulSu:  requested number of processors reduced to:  46 ShMem   1 Linda.
 NMat=     1 NSing=     0 JSym2X= 0.
 CoulSu:  requested number of processors reduced to:  46 ShMem   1 Linda.
 NMat=     1 NSing=     0 JSym2X= 0.
 CoulSu:  requested number of processors reduced to:  46 ShMem   1 Linda.
 NMat=     1 NSing=     0 JSym2X= 0.
 CoulSu:  requested number of processors reduced to:  46 ShMem   1 Linda.
 NMat=     1 NSing=     0 JSym2X= 0.
 CoulSu:  requested number of processors reduced to:  46 ShMem   1 Linda.
 NMat=     1 NSing=     0 JSym2X= 0.
 CoulSu:  requested number of processors reduced to:  46 ShMem   1 Linda.
 NMat=     1 NSing=     0 JSym2X= 0.
 CoulSu:  requested number of processors reduced to:  46 ShMem   1 Linda.
 NMat=     1 NSing=     0 JSym2X= 0.
 CoulSu:  requested number of processors reduced to:  46 ShMem   1 Linda.
 Root      1 not converged, maximum delta is    0.244943451153444
 Excitation Energies [eV] at current iteration:
 Root      1 :     3.728637590707256   Change is   -1.364014258534983
 Root      2 :     6.276771649143370   Change is   -0.138287794356303
 Root      3 :     6.282629055648814   Change is   -0.104004275109147
 Root      4 :     6.700577554786805   Change is   -0.085532915813418
 Root      5 :     6.737568995975189   Change is   -0.119584631232555
 Root      6 :     6.828434808996610   Change is   -0.084096742691345
 Root      7 :     6.871149111445057   Change is   -0.074495656795429
 Root      8 :     6.919049558466062   Change is   -0.094631800738434
 Root      9 :     6.958687999063404   Change is   -0.096296145403263
 Root     10 :     7.459975539195767   Change is   -0.144131699177413
 Root     11 :     7.534257143969829   Change is   -0.113118953376457
 Root     12 :     7.593421744791747   Change is   -0.078919532437443
 Root     13 :     7.626675055886868   Change is   -0.074450070295895
 Root     14 :     7.642094100346529   Change is   -0.060651768631375
 Root     15 :     7.647626957708691   Change is   -0.070136913218701
 Root     16 :     7.758888687689248   Change is   -0.119348550105210
 Root     17 :     7.760488117353187   Change is   -0.092630879948206
 Root     18 :     7.769191343502792   Change is   -0.114986097593992
 Root     19 :     7.775668796651180   Change is   -0.126919573185679
 Root     20 :     8.310114625960225   Change is   -0.145455067696957
 Root     21 :     8.327018695193630   Change is   -0.084820749529326
 Root     22 :     8.332323752157720   Change is   -0.124579189945323
 Root     23 :     8.341323256956159   Change is   -0.078421304678385
 Root     24 :     8.565065150472439   Change is   -2.656834819552711
 Iteration     3 Dimension    54 NMult    48 NNew      6
 Estimated number of processors is:   39
 CISAX will form     1 AO SS matrices at one time.
 NMat=     1 NSing=     1 JSym2X= 0.
 CoulSu:  requested number of processors reduced to:  46 ShMem   1 Linda.
 NMat=     1 NSing=     1 JSym2X= 0.
 CoulSu:  requested number of processors reduced to:  46 ShMem   1 Linda.
 NMat=     1 NSing=     1 JSym2X= 0.
 CoulSu:  requested number of processors reduced to:  46 ShMem   1 Linda.
 NMat=     1 NSing=     0 JSym2X= 0.
 CoulSu:  requested number of processors reduced to:  46 ShMem   1 Linda.
 NMat=     1 NSing=     0 JSym2X= 0.
 CoulSu:  requested number of processors reduced to:  46 ShMem   1 Linda.
 NMat=     1 NSing=     0 JSym2X= 0.
 CoulSu:  requested number of processors reduced to:  46 ShMem   1 Linda.
 Root      1 not converged, maximum delta is    0.012223790633065
 Excitation Energies [eV] at current iteration:
 Root      1 :     3.670356930082129   Change is   -0.058280660625127
 Root      2 :     6.260671268673703   Change is   -0.016100380469667
 Root      3 :     6.267147553733396   Change is   -0.015481501915419
 Root      4 :     6.695029836369797   Change is   -0.005547718417008
 Root      5 :     6.730075394451392   Change is   -0.007493601523798
 Root      6 :     6.856931374920672   Change is   -0.014217736524384
 Iteration     4 Dimension    60 NMult    54 NNew      6
 Estimated number of processors is:   39
 CISAX will form     1 AO SS matrices at one time.
 NMat=     1 NSing=     1 JSym2X= 0.
 CoulSu:  requested number of processors reduced to:  46 ShMem   1 Linda.
 NMat=     1 NSing=     1 JSym2X= 0.
 CoulSu:  requested number of processors reduced to:  46 ShMem   1 Linda.
 NMat=     1 NSing=     1 JSym2X= 0.
 CoulSu:  requested number of processors reduced to:  46 ShMem   1 Linda.
 NMat=     1 NSing=     0 JSym2X= 0.
 CoulSu:  requested number of processors reduced to:  46 ShMem   1 Linda.
 NMat=     1 NSing=     0 JSym2X= 0.
 CoulSu:  requested number of processors reduced to:  46 ShMem   1 Linda.
 NMat=     1 NSing=     0 JSym2X= 0.
 CoulSu:  requested number of processors reduced to:  46 ShMem   1 Linda.
 Root      1 not converged, maximum delta is    0.003998791169243
 Excitation Energies [eV] at current iteration:
 Root      1 :     3.667116814917292   Change is   -0.003240115164837
 Root      2 :     6.260036819174244   Change is   -0.000634449499459
 Root      3 :     6.265519343843946   Change is   -0.001628209889450
 Root      4 :     6.694299504697080   Change is   -0.000730331672717
 Root      5 :     6.729568289754365   Change is   -0.000507104697026
 Root      6 :     6.855343411437859   Change is   -0.001587963482813
 Iteration     5 Dimension    66 NMult    60 NNew      6
 Estimated number of processors is:   39
 CISAX will form     1 AO SS matrices at one time.
 NMat=     1 NSing=     1 JSym2X= 0.
 CoulSu:  requested number of processors reduced to:  46 ShMem   1 Linda.
 NMat=     1 NSing=     1 JSym2X= 0.
 CoulSu:  requested number of processors reduced to:  46 ShMem   1 Linda.
 NMat=     1 NSing=     1 JSym2X= 0.
 CoulSu:  requested number of processors reduced to:  46 ShMem   1 Linda.
 NMat=     1 NSing=     0 JSym2X= 0.
 CoulSu:  requested number of processors reduced to:  46 ShMem   1 Linda.
 NMat=     1 NSing=     0 JSym2X= 0.
 CoulSu:  requested number of processors reduced to:  46 ShMem   1 Linda.
 NMat=     1 NSing=     0 JSym2X= 0.
 CoulSu:  requested number of processors reduced to:  46 ShMem   1 Linda.
 Root      1 has converged.
 Excitation Energies [eV] at current iteration:
 Root      1 :     3.666964886444165   Change is   -0.000151928473127
 Root      2 :     6.260005542965640   Change is   -0.000031276208604
 Root      3 :     6.265244860308737   Change is   -0.000274483535209
 Root      4 :     6.694130601799559   Change is   -0.000168902897521
 Root      5 :     6.729467371475140   Change is   -0.000100918279225
 Root      6 :     6.854870253447867   Change is   -0.000473157989992
 Convergence achieved on expansion vectors.
 ***********************************************************************
 Stability analysis using <AA,BB:AA,BB> singles matrix:
 ***********************************************************************
 1PDM for each excited state written to RWF  633
 Ground to excited state transition densities written to RWF  633

 Eigenvectors of the stability matrix:
 
 Eigenvector   1:      Triplet-A    Eigenvalue= 0.1347585  <S**2>=2.000
      24 -> 25         0.14968
      24 -> 28         0.10524
      24 -> 29         0.21575
      24 -> 34         0.53252
      24 -> 39        -0.23843
      24 -> 43         0.12670
 The wavefunction is stable under the perturbations considered.
 Leave Link  914 at Sun Apr 18 08:20:59 2021, MaxMem=   104857600 cpu:           26308.4 elap:             552.6
 (Enter /s/ls4/users/knvvv/bin/g16sse/l508.exe)
 The wavefunction is already stable.
 Leave Link  508 at Sun Apr 18 08:20:59 2021, MaxMem=   104857600 cpu:               2.2 elap:               0.1
 (Enter /s/ls4/users/knvvv/bin/g16sse/l601.exe)
 Copying SCF densities to generalized density rwf, IOpCl= 0 IROHF=0.

 **********************************************************************

            Population analysis using the SCF density.

 **********************************************************************

 Orbital symmetries:
       Occupied  (A) (A) (A) (A) (A) (A) (A) (A) (A) (A) (A) (A)
                 (A) (A) (A) (A) (A) (A) (A) (A) (A) (A) (A) (A)
       Virtual   (A) (A) (A) (A) (A) (A) (A) (A) (A) (A) (A) (A)
                 (A) (A) (A) (A) (A) (A) (A) (A) (A) (A) (A) (A)
                 (A) (A) (A) (A) (A) (A) (A) (A) (A) (A) (A) (A)
                 (A) (A) (A) (A) (A) (A) (A) (A) (A) (A) (A) (A)
                 (A) (A) (A) (A) (A) (A) (A) (A) (A) (A) (A) (A)
                 (A) (A) (A) (A) (A) (A) (A) (A) (A) (A) (A) (A)
                 (A) (A) (A) (A) (A) (A) (A) (A) (A) (A) (A) (A)
                 (A) (A) (A) (A) (A) (A) (A) (A) (A) (A) (A) (A)
                 (A) (A) (A) (A) (A) (A) (A) (A) (A) (A) (A) (A)
                 (A) (A) (A) (A) (A) (A) (A) (A) (A) (A) (A) (A)
                 (A) (A) (A) (A) (A) (A) (A) (A) (A) (A) (A) (A)
                 (A) (A) (A) (A) (A) (A) (A) (A) (A) (A) (A) (A)
                 (A) (A) (A) (A) (A) (A) (A) (A) (A) (A) (A) (A)
                 (A) (A) (A) (A) (A) (A) (A) (A) (A) (A) (A) (A)
                 (A) (A) (A) (A) (A) (A) (A) (A) (A) (A) (A) (A)
                 (A) (A) (A) (A) (A) (A) (A) (A) (A) (A) (A) (A)
                 (A) (A) (A) (A) (A) (A) (A) (A) (A) (A) (A) (A)
                 (A) (A) (A) (A) (A) (A) (A) (A) (A) (A) (A) (A)
                 (A) (A) (A) (A) (A) (A) (A) (A) (A) (A) (A) (A)
                 (A) (A) (A) (A) (A) (A) (A) (A) (A) (A) (A) (A)
                 (A) (A) (A) (A) (A) (A) (A) (A) (A) (A) (A) (A)
                 (A) (A) (A) (A) (A) (A)
 The electronic state is 1-A.
 Alpha  occ. eigenvalues --  -10.53059 -10.53058 -10.52846 -10.52732 -10.52150
 Alpha  occ. eigenvalues --  -10.52150  -0.91259  -0.86768  -0.80697  -0.72334
 Alpha  occ. eigenvalues --   -0.69161  -0.60238  -0.55601  -0.51186  -0.51022
 Alpha  occ. eigenvalues --   -0.47833  -0.46709  -0.44006  -0.42857  -0.42065
 Alpha  occ. eigenvalues --   -0.39964  -0.39804  -0.37316  -0.29893
 Alpha virt. eigenvalues --    0.00182   0.01655   0.02012   0.02079   0.03404
 Alpha virt. eigenvalues --    0.04371   0.04392   0.05350   0.05364   0.05729
 Alpha virt. eigenvalues --    0.06423   0.07226   0.07280   0.08133   0.08793
 Alpha virt. eigenvalues --    0.10023   0.10525   0.10719   0.11543   0.11863
 Alpha virt. eigenvalues --    0.12982   0.13506   0.13747   0.14106   0.14556
 Alpha virt. eigenvalues --    0.18284   0.20458   0.20899   0.21502   0.21924
 Alpha virt. eigenvalues --    0.22872   0.23204   0.23255   0.23507   0.24584
 Alpha virt. eigenvalues --    0.24631   0.24904   0.25804   0.27711   0.27795
 Alpha virt. eigenvalues --    0.30037   0.32214   0.32929   0.34953   0.35536
 Alpha virt. eigenvalues --    0.35552   0.36657   0.38939   0.39501   0.40401
 Alpha virt. eigenvalues --    0.42007   0.43563   0.43819   0.44751   0.46936
 Alpha virt. eigenvalues --    0.48226   0.49344   0.50372   0.51717   0.51951
 Alpha virt. eigenvalues --    0.52202   0.52685   0.54355   0.55370   0.55756
 Alpha virt. eigenvalues --    0.57133   0.57323   0.57752   0.60190   0.60944
 Alpha virt. eigenvalues --    0.62694   0.62743   0.67654   0.69635   0.69941
 Alpha virt. eigenvalues --    0.70346   0.70671   0.72323   0.76444   0.77120
 Alpha virt. eigenvalues --    0.79197   0.79653   0.92852   0.94412   0.94833
 Alpha virt. eigenvalues --    0.95700   0.99042   1.03237   1.04162   1.04841
 Alpha virt. eigenvalues --    1.08010   1.10334   1.12471   1.12881   1.15139
 Alpha virt. eigenvalues --    1.15522   1.18519   1.20294   1.20778   1.23535
 Alpha virt. eigenvalues --    1.25264   1.28710   1.28918   1.32210   1.35573
 Alpha virt. eigenvalues --    1.38172   1.40365   1.54381   1.55487   1.57691
 Alpha virt. eigenvalues --    1.59150   1.59504   1.60271   1.60821   1.60979
 Alpha virt. eigenvalues --    1.63231   1.64197   1.64264   1.65242   1.65964
 Alpha virt. eigenvalues --    1.68656   1.72483   1.75681   1.75993   1.78682
 Alpha virt. eigenvalues --    1.81470   1.82313   1.83321   1.86061   1.86468
 Alpha virt. eigenvalues --    1.88049   1.91752   1.95735   1.95867   1.98014
 Alpha virt. eigenvalues --    2.00371   2.04521   2.05123   2.09390   2.11762
 Alpha virt. eigenvalues --    2.15845   2.20267   2.22821   2.26472   2.30435
 Alpha virt. eigenvalues --    2.31599   2.32183   2.35287   2.36450   2.36796
 Alpha virt. eigenvalues --    2.39569   2.39673   2.43107   2.44352   2.44656
 Alpha virt. eigenvalues --    2.45360   2.48584   2.50596   2.53074   2.55847
 Alpha virt. eigenvalues --    2.59136   2.60077   2.60325   2.62653   2.62765
 Alpha virt. eigenvalues --    2.63385   2.63744   2.67856   2.67988   2.68768
 Alpha virt. eigenvalues --    2.70473   2.72175   2.74543   2.79674   2.80312
 Alpha virt. eigenvalues --    2.83232   2.86478   2.89052   2.89268   2.90178
 Alpha virt. eigenvalues --    2.91719   2.96739   2.98377   3.03730   3.06709
 Alpha virt. eigenvalues --    3.08035   3.08385   3.11590   3.13222   3.14844
 Alpha virt. eigenvalues --    3.16548   3.18561   3.20230   3.21278   3.25196
 Alpha virt. eigenvalues --    3.25472   3.26025   3.26575   3.28666   3.28802
 Alpha virt. eigenvalues --    3.30983   3.35332   3.37621   3.38691   3.38901
 Alpha virt. eigenvalues --    3.39964   3.42288   3.44126   3.46909   3.48245
 Alpha virt. eigenvalues --    3.50947   3.54841   3.55417   3.56263   3.57533
 Alpha virt. eigenvalues --    3.61306   3.69084   3.75254   3.77053   3.79659
 Alpha virt. eigenvalues --    3.84637   3.86664   3.89694   3.91386   3.93438
 Alpha virt. eigenvalues --    3.96733   3.99140   4.01364   4.02594   4.02935
 Alpha virt. eigenvalues --    4.05575   4.15393   4.21011   4.28393   4.32978
 Alpha virt. eigenvalues --    4.37826   4.38095   4.47707   4.47975   4.51014
 Alpha virt. eigenvalues --    4.54122   4.54662   4.57279   4.63917   4.67309
 Alpha virt. eigenvalues --    4.71689   4.71804   4.77972   4.83619   4.85987
 Alpha virt. eigenvalues --    5.02080   5.34267  22.44816  22.45148  22.45224
 Alpha virt. eigenvalues --   22.54966  22.66953  23.02977
          Condensed to atoms (all electrons):
               1          2          3          4          5          6
     1  C    5.150335   0.147132   0.444632   0.403128   0.438758  -0.001910
     2  C    0.147132   5.557074  -0.015564  -0.067661  -0.068243   0.417595
     3  H    0.444632  -0.015564   0.539603  -0.025277  -0.029406   0.006519
     4  H    0.403128  -0.067661  -0.025277   0.535612  -0.022840  -0.004890
     5  H    0.438758  -0.068243  -0.029406  -0.022840   0.537284  -0.003650
     6  H   -0.001910   0.417595   0.006519  -0.004890  -0.003650   0.564176
     7  H   -0.041026   0.465624  -0.004342  -0.003134   0.007148  -0.026362
     8  C   -0.128197  -0.003154  -0.048489   0.049951  -0.018763  -0.144656
     9  C    0.059537   0.092163   0.006162  -0.007914   0.008975   0.084783
    10  H    0.023405  -0.022026  -0.000522  -0.000135   0.001085   0.003507
    11  H    0.000891  -0.020971   0.000039   0.000018  -0.000062   0.000476
    12  C    0.012112  -0.228222  -0.012380   0.003867   0.008455  -0.024916
    13  C    0.001870   0.012113   0.000661  -0.000392   0.001656   0.004661
    14  H    0.004664  -0.024916   0.000005   0.000102   0.000074   0.002830
    15  H    0.000658  -0.005434  -0.000003  -0.000022  -0.000119   0.000180
    16  H   -0.000392   0.003866  -0.000000  -0.000000  -0.000001   0.000102
    17  H    0.001656   0.008454   0.000000  -0.000001  -0.000004   0.000074
    18  H    0.000661  -0.012380   0.000000  -0.000000   0.000000   0.000005
               7          8          9         10         11         12
     1  C   -0.041026  -0.128197   0.059537   0.023405   0.000891   0.012112
     2  C    0.465624  -0.003154   0.092163  -0.022026  -0.020971  -0.228222
     3  H   -0.004342  -0.048489   0.006162  -0.000522   0.000039  -0.012380
     4  H   -0.003134   0.049951  -0.007914  -0.000135   0.000018   0.003867
     5  H    0.007148  -0.018763   0.008975   0.001085  -0.000062   0.008455
     6  H   -0.026362  -0.144656   0.084783   0.003507   0.000476  -0.024916
     7  H    0.556340  -0.065969  -0.023129  -0.002245  -0.000300  -0.005433
     8  C   -0.065969   5.824472   0.023165   0.334800   0.028483   0.092180
     9  C   -0.023129   0.023165   5.824479   0.028486   0.334801  -0.003170
    10  H   -0.002245   0.334800   0.028486   0.514925  -0.005528  -0.020970
    11  H   -0.000300   0.028483   0.334801  -0.005528   0.514923  -0.022021
    12  C   -0.005433   0.092180  -0.003170  -0.020970  -0.022021   5.557055
    13  C    0.000658   0.059527  -0.128185   0.000890   0.023403   0.147140
    14  H    0.000180   0.084777  -0.144650   0.000476   0.003507   0.417598
    15  H   -0.000217  -0.023133  -0.065970  -0.000300  -0.002244   0.465627
    16  H   -0.000022  -0.007913   0.049951   0.000018  -0.000135  -0.067662
    17  H   -0.000119   0.008971  -0.018762  -0.000062   0.001085  -0.068239
    18  H   -0.000003   0.006159  -0.048485   0.000039  -0.000522  -0.015562
              13         14         15         16         17         18
     1  C    0.001870   0.004664   0.000658  -0.000392   0.001656   0.000661
     2  C    0.012113  -0.024916  -0.005434   0.003866   0.008454  -0.012380
     3  H    0.000661   0.000005  -0.000003  -0.000000   0.000000   0.000000
     4  H   -0.000392   0.000102  -0.000022  -0.000000  -0.000001  -0.000000
     5  H    0.001656   0.000074  -0.000119  -0.000001  -0.000004   0.000000
     6  H    0.004661   0.002830   0.000180   0.000102   0.000074   0.000005
     7  H    0.000658   0.000180  -0.000217  -0.000022  -0.000119  -0.000003
     8  C    0.059527   0.084777  -0.023133  -0.007913   0.008971   0.006159
     9  C   -0.128185  -0.144650  -0.065970   0.049951  -0.018762  -0.048485
    10  H    0.000890   0.000476  -0.000300   0.000018  -0.000062   0.000039
    11  H    0.023403   0.003507  -0.002244  -0.000135   0.001085  -0.000522
    12  C    0.147140   0.417598   0.465627  -0.067662  -0.068239  -0.015562
    13  C    5.150329  -0.001915  -0.041023   0.403129   0.438758   0.444628
    14  H   -0.001915   0.564177  -0.026363  -0.004890  -0.003650   0.006520
    15  H   -0.041023  -0.026363   0.556340  -0.003135   0.007148  -0.004342
    16  H    0.403129  -0.004890  -0.003135   0.535612  -0.022840  -0.025277
    17  H    0.438758  -0.003650   0.007148  -0.022840   0.537282  -0.029406
    18  H    0.444628   0.006520  -0.004342  -0.025277  -0.029406   0.539604
 Mulliken charges:
               1
     1  C   -0.517912
     2  C   -0.235450
     3  H    0.138362
     4  H    0.139590
     5  H    0.139652
     6  H    0.121475
     7  H    0.142350
     8  C   -0.072212
     9  C   -0.072237
    10  H    0.144158
    11  H    0.144158
    12  C   -0.235456
    13  C   -0.517906
    14  H    0.121474
    15  H    0.142350
    16  H    0.139590
    17  H    0.139653
    18  H    0.138362
 Sum of Mulliken charges =  -0.00000
 Mulliken charges with hydrogens summed into heavy atoms:
               1
     1  C   -0.100308
     2  C    0.028375
     8  C    0.071946
     9  C    0.071921
    12  C    0.028368
    13  C   -0.100302
 Electronic spatial extent (au):  <R**2>=            915.5520
 Charge=             -0.0000 electrons
 Dipole moment (field-independent basis, Debye):
    X=              0.0000    Y=             -0.3264    Z=             -0.0000  Tot=              0.3264
 Quadrupole moment (field-independent basis, Debye-Ang):
   XX=            -39.3992   YY=            -39.5197   ZZ=            -41.3901
   XY=              0.0001   XZ=              1.5120   YZ=             -0.0001
 Traceless Quadrupole moment (field-independent basis, Debye-Ang):
   XX=              0.7038   YY=              0.5833   ZZ=             -1.2871
   XY=              0.0001   XZ=              1.5120   YZ=             -0.0001
 Octapole moment (field-independent basis, Debye-Ang**2):
  XXX=              0.0003  YYY=              0.7338  ZZZ=              0.0001  XYY=              0.0001
  XXY=              0.5718  XXZ=              0.0000  XZZ=             -0.0001  YZZ=             -1.8143
  YYZ=             -0.0002  XYZ=              0.9171
 Hexadecapole moment (field-independent basis, Debye-Ang**3):
 XXXX=          -1019.9504 YYYY=           -161.3622 ZZZZ=           -113.7747 XXXY=              0.0004
 XXXZ=             10.9301 YYYX=              0.0005 YYYZ=             -0.0009 ZZZX=              3.0682
 ZZZY=              0.0005 XXYY=           -187.9986 XXZZ=           -189.3223 YYZZ=            -51.3077
 XXYZ=             -0.0005 YYXZ=              3.3914 ZZXY=             -0.0000
 N-N= 2.317845611861D+02 E-N=-1.009013940373D+03  KE= 2.345891056974D+02
 PrsmSu:  requested number of processors reduced to:  47 ShMem   1 Linda.
 No NMR shielding tensors so no spin-rotation constants.
 Leave Link  601 at Sun Apr 18 08:21:00 2021, MaxMem=   104857600 cpu:              59.5 elap:               1.3
 (Enter /s/ls4/users/knvvv/bin/g16sse/l9999.exe)

 Test job not archived.
 1\1\GINC-N178\Stability\RM062X\Gen\C6H12\KNVVV\18-Apr-2021\0\\#P M062X
 /GEN Integral=UltraFineGrid SCF=NoSymm Stable=(RExt, Opt) IOp(1/33=1)\
 \Database calculations.\\0,1\C,0,2.775589,-0.346686,-0.122933\C,0,1.45
 2569,-0.32747,0.629207\H,0,3.34058,0.569663,0.049988\H,0,3.401163,-1.1
 82486,0.18772\H,0,2.616239,-0.429717,-1.197689\H,0,0.914187,-1.260154,
 0.455665\H,0,1.658835,-0.298898,1.704048\C,0,0.607652,0.847686,0.26793
 \C,0,-0.60859,0.846601,-0.270736\H,0,1.067994,1.813688,0.461946\H,0,-1
 .069333,1.811807,-0.467736\C,0,-1.452999,-0.330019,-0.628417\C,0,-2.77
 6046,-0.347456,0.123711\H,0,-0.914236,-1.261936,-0.45196\H,0,-1.65922,
 -0.304866,-1.703353\H,0,-3.401256,-1.184474,-0.184385\H,0,-2.61672,-0.
 427094,1.198727\H,0,-3.341411,0.568118,-0.052074\\Version=ES64L-G16Rev
 A.03\State=1-A\HF=-235.8060323\RMSD=7.878e-09\Dipole=0.0000332,-0.1284
 138,0.0001871\Quadrupole=0.369051,0.4336757,-0.8027267,0.0018662,1.211
 669,-0.0016662\PG=C01 [X(C6H12)]\\@


 CHARLIE BROWN.."I CAN'T GET THAT STUPID KITE IN THE
 AIR... I CAN'T... I C A N N O T..."
 LUCY.."OH COME NOW CHARLIE BROWN...THAT'S NO WAY TO TALK...
 THE TROUBLE WITH YOU IS YOU DON'T BELIEVE IN YOURSELF... YOU
 DON'T BELIEVE IN YOUR OWN ABILITIES...  YOU'VE GOT TO SAY TO
 YOURSELF...'I BELIEVE I CAN FLY THIS KITE.'... GO AHEAD SAY
 IT...."
 CHARLIE BROWN.."I BELIEVE THAT I CAN FLY THIS STUPID
 KITE.....I BELIEVE THAT I CAN FLY THIS KITE........
 I  A C T U A L L Y  B E L I E V E  T H A T  I  C A N ******"
 LUCY.."I'LL BET YOU TEN-TO-ONE YOU'RE WRONG......."    SCHULZ
 Job cpu time:       0 days  7 hours 50 minutes 20.6 seconds.
 Elapsed time:       0 days  0 hours  9 minutes 53.5 seconds.
 File lengths (MBytes):  RWF=    318 Int=      0 D2E=      0 Chk=     12 Scr=      1
 Normal termination of Gaussian 16 at Sun Apr 18 08:21:00 2021.
