 Entering Gaussian System, Link 0=/s/ls4/users/knvvv/bin/g16sse/g16
 Input=data/database/M062X--def2-QZVP--G21EA_EA_13n.gjf
 Output=data/database/M062X--def2-QZVP--G21EA_EA_13n.log
 Initial command:
 /s/ls4/users/knvvv/bin/g16sse/l1.exe "/s/ls4/users/knvvv/bin/scratch/Gau-10288.inp" -scrdir="/s/ls4/users/knvvv/bin/scratch/"
 Entering Link 1 = /s/ls4/users/knvvv/bin/g16sse/l1.exe PID=     10289.
  
 Copyright (c) 1988,1990,1992,1993,1995,1998,2003,2009,2016,
            Gaussian, Inc.  All Rights Reserved.
  
 This is part of the Gaussian(R) 16 program.  It is based on
 the Gaussian(R) 09 system (copyright 2009, Gaussian, Inc.),
 the Gaussian(R) 03 system (copyright 2003, Gaussian, Inc.),
 the Gaussian(R) 98 system (copyright 1998, Gaussian, Inc.),
 the Gaussian(R) 94 system (copyright 1995, Gaussian, Inc.),
 the Gaussian 92(TM) system (copyright 1992, Gaussian, Inc.),
 the Gaussian 90(TM) system (copyright 1990, Gaussian, Inc.),
 the Gaussian 88(TM) system (copyright 1988, Gaussian, Inc.),
 the Gaussian 86(TM) system (copyright 1986, Carnegie Mellon
 University), and the Gaussian 82(TM) system (copyright 1983,
 Carnegie Mellon University). Gaussian is a federally registered
 trademark of Gaussian, Inc.
  
 This software contains proprietary and confidential information,
 including trade secrets, belonging to Gaussian, Inc.
  
 This software is provided under written license and may be
 used, copied, transmitted, or stored only in accord with that
 written license.
  
 The following legend is applicable only to US Government
 contracts under FAR:
  
                    RESTRICTED RIGHTS LEGEND
  
 Use, reproduction and disclosure by the US Government is
 subject to restrictions as set forth in subparagraphs (a)
 and (c) of the Commercial Computer Software - Restricted
 Rights clause in FAR 52.227-19.
  
 Gaussian, Inc.
 340 Quinnipiac St., Bldg. 40, Wallingford CT 06492
  
  
 ---------------------------------------------------------------
 Warning -- This program may not be used in any manner that
 competes with the business of Gaussian, Inc. or will provide
 assistance to any competitor of Gaussian, Inc.  The licensee
 of this program is prohibited from giving any competitor of
 Gaussian, Inc. access to this program.  By using this program,
 the user acknowledges that Gaussian, Inc. is engaged in the
 business of creating and licensing software in the field of
 computational chemistry and represents and warrants to the
 licensee that it is not a competitor of Gaussian, Inc. and that
 it will not use this program in any manner prohibited above.
 ---------------------------------------------------------------
  

 Cite this work as:
 Gaussian 16, Revision A.03,
 M. J. Frisch, G. W. Trucks, H. B. Schlegel, G. E. Scuseria, 
 M. A. Robb, J. R. Cheeseman, G. Scalmani, V. Barone, 
 G. A. Petersson, H. Nakatsuji, X. Li, M. Caricato, A. V. Marenich, 
 J. Bloino, B. G. Janesko, R. Gomperts, B. Mennucci, H. P. Hratchian, 
 J. V. Ortiz, A. F. Izmaylov, J. L. Sonnenberg, D. Williams-Young, 
 F. Ding, F. Lipparini, F. Egidi, J. Goings, B. Peng, A. Petrone, 
 T. Henderson, D. Ranasinghe, V. G. Zakrzewski, J. Gao, N. Rega, 
 G. Zheng, W. Liang, M. Hada, M. Ehara, K. Toyota, R. Fukuda, 
 J. Hasegawa, M. Ishida, T. Nakajima, Y. Honda, O. Kitao, H. Nakai, 
 T. Vreven, K. Throssell, J. A. Montgomery, Jr., J. E. Peralta, 
 F. Ogliaro, M. J. Bearpark, J. J. Heyd, E. N. Brothers, K. N. Kudin, 
 V. N. Staroverov, T. A. Keith, R. Kobayashi, J. Normand, 
 K. Raghavachari, A. P. Rendell, J. C. Burant, S. S. Iyengar, 
 J. Tomasi, M. Cossi, J. M. Millam, M. Klene, C. Adamo, R. Cammi, 
 J. W. Ochterski, R. L. Martin, K. Morokuma, O. Farkas, 
 J. B. Foresman, and D. J. Fox, Gaussian, Inc., Wallingford CT, 2016.
 
 ******************************************
 Gaussian 16:  ES64L-G16RevA.03 25-Dec-2016
                17-Apr-2021 
 ******************************************
 %RWF=temp0_57358,70GB
 %nprocshared=48
 Will use up to   48 processors via shared memory.
 Default route: MaxDisk=80GB
 ----------------------------------------------------------------------
 #P M062X/Def2QZVP Integral=UltraFineGrid SCF=NoSymm Stable=(RExt, Opt)
  IOp(1/33=1)
 ----------------------------------------------------------------------
 1/33=1,38=1,172=1/1;
 2/12=2,17=6,18=5,40=1/2;
 3/5=45,7=101,11=2,25=1,30=1,74=-55,75=-5/1,2,3;
 4/9=2/1;
 5/5=2,38=5/2;
 6/7=2,8=2,9=2,10=2,28=1/1;
 8/6=1,10=90,11=11/1;
 9/8=-3,42=1,46=1/14;
 5/5=2,8=3,17=40,38=5/8(-2);
 6/7=2,8=2,9=2,10=2,28=1/1;
 99/5=1,9=1/99;
 Leave Link    1 at Sat Apr 17 00:10:30 2021, MaxMem=           0 cpu:              11.9 elap:               0.3
 (Enter /s/ls4/users/knvvv/bin/g16sse/l101.exe)
 ONIOM data not found on unit 2.
 ----------------------
 Database calculations.
 ----------------------
 TstMul:  ICh=     0
 TstMul:  Mul=     2
 TstMul:  ICh=     0
 TstMul:  Mul=     2
 Symbolic Z-matrix:
 Charge =  0 Multiplicity = 2
 O                     0.        0.        0.48733 
 H                     0.        0.       -0.48733 
 
 RdStrC is calling ZToCFu for IStruc=1 NZ=     2.
 PrtBox:  NBox=     1 Levels=  1 BoxLen=    8.00 SMaxX=        1.84
          Shift=            0.000000            0.000000            0.920915
 Box      1 Number                   0 centers from      1 to      2:
 After GenITR:
 ITRead=  0  0
 MicOpt= -1 -1
 ITRead=  0  0
 MicOpt= -1 -1
 NAtoms=      2 NQM=        2 NQMF=       0 NMMI=      0 NMMIF=      0
                NMic=       0 NMicF=      0.
                    Isotopes and Nuclear Properties:
 (Nuclear quadrupole moments (NQMom) in fm**2, nuclear magnetic moments (NMagM)
  in nuclear magnetons)

  Atom         1           2
 IAtWgt=          16           1
 AtmWgt=  15.9949146   1.0078250
 NucSpn=           0           1
 AtZEff=  -0.0000000  -0.0000000
 NQMom=    0.0000000   0.0000000
 NMagM=    0.0000000   2.7928460
 AtZNuc=   8.0000000   1.0000000
 No MM parameters found.
 Leave Link  101 at Sat Apr 17 00:10:30 2021, MaxMem=   104857600 cpu:               6.9 elap:               0.2
 (Enter /s/ls4/users/knvvv/bin/g16sse/l202.exe)
                          Input orientation:                          
 ---------------------------------------------------------------------
 Center     Atomic      Atomic             Coordinates (Angstroms)
 Number     Number       Type             X           Y           Z
 ---------------------------------------------------------------------
      1          8           0        0.000000    0.000000    0.487327
      2          1           0        0.000000    0.000000   -0.487327
 ---------------------------------------------------------------------
 Stoichiometry    HO(2)
 Framework group  C*V[C*(HO)]
 Deg. of freedom     1
 Full point group                 C*V     NOp   4
 Largest Abelian subgroup         C2V     NOp   4
 Largest concise Abelian subgroup C1      NOp   1
                         Standard orientation:                         
 ---------------------------------------------------------------------
 Center     Atomic      Atomic             Coordinates (Angstroms)
 Number     Number       Type             X           Y           Z
 ---------------------------------------------------------------------
      1          8           0        0.000000    0.000000    0.108295
      2          1           0        0.000000    0.000000   -0.866359
 ---------------------------------------------------------------------
 Rotational constants (GHZ):           0.0000000         561.1358324         561.1358324
 Leave Link  202 at Sat Apr 17 00:10:30 2021, MaxMem=   104857600 cpu:               6.2 elap:               0.2
 (Enter /s/ls4/users/knvvv/bin/g16sse/l301.exe)
 Standard basis: def2QZVP (5D, 7F)
 Ernie: Thresh=  0.10000D-02 Tol=  0.10000D-05 Strict=F.
 There are    48 symmetry adapted cartesian basis functions of A1  symmetry.
 There are    11 symmetry adapted cartesian basis functions of A2  symmetry.
 There are    24 symmetry adapted cartesian basis functions of B1  symmetry.
 There are    24 symmetry adapted cartesian basis functions of B2  symmetry.
 There are    37 symmetry adapted basis functions of A1  symmetry.
 There are    10 symmetry adapted basis functions of A2  symmetry.
 There are    20 symmetry adapted basis functions of B1  symmetry.
 There are    20 symmetry adapted basis functions of B2  symmetry.
    87 basis functions,   130 primitive gaussians,   107 cartesian basis functions
     5 alpha electrons        4 beta electrons
       nuclear repulsion energy         4.3435077770 Hartrees.
 IExCor= 4336 DFT=T Ex+Corr=M062X ExCW=0 ScaHFX=  0.540000
 ScaDFX=  1.000000  1.000000  1.000000  1.000000 ScalE2=  1.000000  1.000000
 IRadAn=      5 IRanWt=     -1 IRanGd=            0 ICorTp=0 IEmpDi=  4
 NAtoms=    2 NActive=    2 NUniq=    2 SFac= 1.00D+00 NAtFMM=   60 NAOKFM=F Big=F
 Integral buffers will be    131072 words long.
 Raffenetti 2 integral format.
 Two-electron integral symmetry is turned on.
 Leave Link  301 at Sat Apr 17 00:10:30 2021, MaxMem=   104857600 cpu:               6.2 elap:               0.2
 (Enter /s/ls4/users/knvvv/bin/g16sse/l302.exe)
 NPDir=0 NMtPBC=     1 NCelOv=     1 NCel=       1 NClECP=     1 NCelD=      1
         NCelK=      1 NCelE2=     1 NClLst=     1 CellRange=     0.0.
 One-electron integrals computed using PRISM.
 One-electron integral symmetry used in STVInt
 PrsmSu:  requested number of processors reduced to:   4 ShMem   1 Linda.
 PrsmSu:  requested number of processors reduced to:  21 ShMem   1 Linda.
   4 Symmetry operations used in ECPInt.
 ECPInt:  NShTT=     378 NPrTT=     948 LenC2=     379 LenP2D=     926.
 LDataN:  DoStor=T MaxTD1= 8 Len=  415
 Number of processors reduced to  46 by ecpmxn.
 NBasis=    87 RedAO= T EigKep=  5.10D-04  NBF=    37    10    20    20
 NBsUse=    87 1.00D-06 EigRej= -1.00D+00 NBFU=    37    10    20    20
 Precomputing XC quadrature grid using
 IXCGrd= 4 IRadAn=           5 IRanWt=          -1 IRanGd=           0 AccXCQ= 0.00D+00.
 Generated NRdTot=       0 NPtTot=           0 NUsed=           0 NTot=          32
 NSgBfM=   107   107   107   107   107 MxSgAt=     2 MxSgA2=     2.
 Leave Link  302 at Sat Apr 17 00:10:33 2021, MaxMem=   104857600 cpu:             130.3 elap:               2.9
 (Enter /s/ls4/users/knvvv/bin/g16sse/l303.exe)
 DipDrv:  MaxL=1.
 Leave Link  303 at Sat Apr 17 00:10:34 2021, MaxMem=   104857600 cpu:              17.2 elap:               0.4
 (Enter /s/ls4/users/knvvv/bin/g16sse/l401.exe)
 SCF N**3 symmetry information disabled.
 ExpMin= 8.03D-02 ExpMax= 1.17D+05 ExpMxC= 1.13D+03 IAcc=3 IRadAn=         5 AccDes= 0.00D+00
 Harris functional with IExCor= 1009 and IRadAn=       5 diagonalized for initial guess.
 HarFok:  IExCor= 1009 AccDes= 0.00D+00 IRadAn=         5 IDoV= 1 UseB2=F ITyADJ=14
 ICtDFT=  3500011 ScaDFX=  1.000000  1.000000  1.000000  1.000000
 FoFCou: FMM=F IPFlag=           0 FMFlag=      100000 FMFlg1=           0
         NFxFlg=           0 DoJE=T BraDBF=F KetDBF=T FulRan=T
         wScrn=  0.000000 ICntrl=       500 IOpCl=  0 I1Cent=   200000004 NGrid=           0
         NMat0=    1 NMatS0=      1 NMatT0=    0 NMatD0=    1 NMtDS0=    0 NMtDT0=    0
 Petite list used in FoFCou.
 CoulSu:  requested number of processors reduced to:  21 ShMem   1 Linda.
 CoulSu:  requested number of processors reduced to:  21 ShMem   1 Linda.
 CoulSu:  requested number of processors reduced to:  21 ShMem   1 Linda.
 CoulSu:  requested number of processors reduced to:  21 ShMem   1 Linda.
 Harris En= -75.6664908059107    
 JPrj=0 DoOrth=F DoCkMO=F.
 Initial guess orbital symmetries:
 Alpha Orbitals:
       Occupied  (SG) (SG) (SG) (PI) (PI)
       Virtual   (SG) (SG) (PI) (PI) (SG) (PI) (PI) (SG) (SG) (SG)
                 (DLTA) (DLTA) (PI) (PI) (SG) (PI) (PI) (SG) (DLTA)
                 (DLTA) (PI) (PI) (SG) (PI) (PI) (SG) (PHI) (PHI)
                 (SG) (DLTA) (DLTA) (DLTA) (DLTA) (PI) (PI) (SG)
                 (SG) (PI) (PI) (PI) (PI) (SG) (PHI) (PHI) (DLTA)
                 (DLTA) (SG) (PI) (PI) (SG) (PI) (PI) (DLTA) (DLTA)
                 (SG) (PI) (PI) (?A) (?A) (PHI) (PHI) (DLTA) (DLTA)
                 (SG) (PI) (PI) (PHI) (PHI) (SG) (DLTA) (DLTA)
                 (PI) (PI) (SG) (DLTA) (DLTA) (SG) (PI) (PI) (SG)
                 (SG) (SG)
 Beta  Orbitals:
       Occupied  (SG) (SG) (SG) (PI)
       Virtual   (PI) (SG) (SG) (PI) (PI) (SG) (PI) (PI) (SG) (SG)
                 (SG) (DLTA) (DLTA) (PI) (PI) (SG) (PI) (PI) (SG)
                 (DLTA) (DLTA) (PI) (PI) (SG) (PI) (PI) (SG) (PHI)
                 (PHI) (SG) (DLTA) (DLTA) (DLTA) (DLTA) (PI) (PI)
                 (SG) (SG) (PI) (PI) (PI) (PI) (SG) (PHI) (PHI)
                 (DLTA) (DLTA) (SG) (PI) (PI) (SG) (PI) (PI) (DLTA)
                 (DLTA) (SG) (PI) (PI) (?A) (?A) (PHI) (PHI) (DLTA)
                 (DLTA) (SG) (PI) (PI) (PHI) (PHI) (SG) (DLTA)
                 (DLTA) (PI) (PI) (SG) (DLTA) (DLTA) (SG) (PI)
                 (PI) (SG) (SG) (SG)
 Initial guess <Sx>= 0.0000 <Sy>= 0.0000 <Sz>= 0.5000 <S**2>= 0.7500 S= 0.5000
 Leave Link  401 at Sat Apr 17 00:10:35 2021, MaxMem=   104857600 cpu:              66.4 elap:               1.6
 (Enter /s/ls4/users/knvvv/bin/g16sse/l502.exe)
 Keep R1 and R2 ints in memory in symmetry-blocked form, NReq=61526203.
 FoFCou: FMM=F IPFlag=           0 FMFlag=           0 FMFlg1=           0
         NFxFlg=           0 DoJE=F BraDBF=F KetDBF=F FulRan=T
         wScrn=  0.000000 ICntrl=       600 IOpCl=  0 I1Cent=           0 NGrid=           0
         NMat0=    1 NMatS0=   3828 NMatT0=    0 NMatD0=    1 NMtDS0=    0 NMtDT0=    0
 Petite list used in FoFCou.
 CoulSu:  requested number of processors reduced to:  21 ShMem   1 Linda.
 UHF open shell SCF:
 Using DIIS extrapolation, IDIIS=  1040.
 NGot=   104857600 LenX=   101065612 LenY=   101053722
 Requested convergence on RMS density matrix=1.00D-08 within 128 cycles.
 Requested convergence on MAX density matrix=1.00D-06.
 Requested convergence on             energy=1.00D-06.
 No special actions if energy rises.
 Integral accuracy reduced to 1.0D-05 until final iterations.

 Cycle   1  Pass 0  IDiag  1:
 E= -75.7239093689512    
 DIIS: error= 4.13D-02 at cycle   1 NSaved=   1.
 NSaved= 1 IEnMin= 1 EnMin= -75.7239093689512     IErMin= 1 ErrMin= 4.13D-02
 ErrMax= 4.13D-02  0.00D+00 EMaxC= 1.00D-01 BMatC= 1.93D-01 BMatP= 1.93D-01
 IDIUse=3 WtCom= 5.87D-01 WtEn= 4.13D-01
 Coeff-Com:  0.100D+01
 Coeff-En:   0.100D+01
 Coeff:      0.100D+01
 Gap=     0.496 Goal=   None    Shift=    0.000
 Gap=     0.329 Goal=   None    Shift=    0.000
 GapD=    0.329 DampG=1.000 DampE=0.500 DampFc=0.5000 IDamp=-1.
 Damping current iteration by 5.00D-01
 RMSDP=1.46D-03 MaxDP=6.03D-02              OVMax= 7.92D-02

 Cycle   2  Pass 0  IDiag  1:
 E= -75.7315893855002     Delta-E=       -0.007680016549 Rises=F Damp=T
 DIIS: error= 2.13D-02 at cycle   2 NSaved=   2.
 NSaved= 2 IEnMin= 2 EnMin= -75.7315893855002     IErMin= 2 ErrMin= 2.13D-02
 ErrMax= 2.13D-02  0.00D+00 EMaxC= 1.00D-01 BMatC= 3.87D-02 BMatP= 1.93D-01
 IDIUse=3 WtCom= 7.87D-01 WtEn= 2.13D-01
 Coeff-Com: -0.387D+00 0.139D+01
 Coeff-En:   0.000D+00 0.100D+01
 Coeff:     -0.304D+00 0.130D+01
 Gap=     0.497 Goal=   None    Shift=    0.000
 Gap=     0.307 Goal=   None    Shift=    0.000
 RMSDP=5.30D-04 MaxDP=1.13D-02 DE=-7.68D-03 OVMax= 3.86D-02

 Cycle   3  Pass 0  IDiag  1:
 E= -75.7387947039591     Delta-E=       -0.007205318459 Rises=F Damp=F
 DIIS: error= 6.91D-03 at cycle   3 NSaved=   3.
 NSaved= 3 IEnMin= 3 EnMin= -75.7387947039591     IErMin= 3 ErrMin= 6.91D-03
 ErrMax= 6.91D-03  0.00D+00 EMaxC= 1.00D-01 BMatC= 4.81D-03 BMatP= 3.87D-02
 IDIUse=3 WtCom= 9.31D-01 WtEn= 6.91D-02
 Coeff-Com: -0.221D+00 0.431D+00 0.790D+00
 Coeff-En:   0.000D+00 0.000D+00 0.100D+01
 Coeff:     -0.206D+00 0.401D+00 0.805D+00
 Gap=     0.482 Goal=   None    Shift=    0.000
 Gap=     0.303 Goal=   None    Shift=    0.000
 RMSDP=1.71D-04 MaxDP=5.62D-03 DE=-7.21D-03 OVMax= 1.12D-02

 Cycle   4  Pass 0  IDiag  1:
 E= -75.7395668810251     Delta-E=       -0.000772177066 Rises=F Damp=F
 DIIS: error= 6.59D-04 at cycle   4 NSaved=   4.
 NSaved= 4 IEnMin= 4 EnMin= -75.7395668810251     IErMin= 4 ErrMin= 6.59D-04
 ErrMax= 6.59D-04  0.00D+00 EMaxC= 1.00D-01 BMatC= 4.59D-05 BMatP= 4.81D-03
 IDIUse=3 WtCom= 9.93D-01 WtEn= 6.59D-03
 Coeff-Com:  0.434D-01-0.888D-01-0.913D-01 0.114D+01
 Coeff-En:   0.000D+00 0.000D+00 0.000D+00 0.100D+01
 Coeff:      0.431D-01-0.882D-01-0.907D-01 0.114D+01
 Gap=     0.483 Goal=   None    Shift=    0.000
 Gap=     0.303 Goal=   None    Shift=    0.000
 RMSDP=3.28D-05 MaxDP=9.33D-04 DE=-7.72D-04 OVMax= 2.34D-03

 Cycle   5  Pass 0  IDiag  1:
 E= -75.7395837473754     Delta-E=       -0.000016866350 Rises=F Damp=F
 DIIS: error= 1.63D-04 at cycle   5 NSaved=   5.
 NSaved= 5 IEnMin= 5 EnMin= -75.7395837473754     IErMin= 5 ErrMin= 1.63D-04
 ErrMax= 1.63D-04  0.00D+00 EMaxC= 1.00D-01 BMatC= 3.72D-06 BMatP= 4.59D-05
 IDIUse=3 WtCom= 9.98D-01 WtEn= 1.63D-03
 Coeff-Com:  0.208D-01-0.401D-01-0.708D-01-0.142D-01 0.110D+01
 Coeff-En:   0.000D+00 0.000D+00 0.000D+00 0.000D+00 0.100D+01
 Coeff:      0.208D-01-0.400D-01-0.707D-01-0.142D-01 0.110D+01
 Gap=     0.483 Goal=   None    Shift=    0.000
 Gap=     0.303 Goal=   None    Shift=    0.000
 RMSDP=1.15D-05 MaxDP=3.39D-04 DE=-1.69D-05 OVMax= 7.57D-04

 Cycle   6  Pass 0  IDiag  1:
 E= -75.7395857035723     Delta-E=       -0.000001956197 Rises=F Damp=F
 DIIS: error= 4.65D-05 at cycle   6 NSaved=   6.
 NSaved= 6 IEnMin= 6 EnMin= -75.7395857035723     IErMin= 6 ErrMin= 4.65D-05
 ErrMax= 4.65D-05  0.00D+00 EMaxC= 1.00D-01 BMatC= 2.37D-07 BMatP= 3.72D-06
 IDIUse=1 WtCom= 1.00D+00 WtEn= 0.00D+00
 Coeff-Com: -0.687D-02 0.135D-01 0.216D-01-0.570D-01-0.279D+00 0.131D+01
 Coeff:     -0.687D-02 0.135D-01 0.216D-01-0.570D-01-0.279D+00 0.131D+01
 Gap=     0.483 Goal=   None    Shift=    0.000
 Gap=     0.303 Goal=   None    Shift=    0.000
 RMSDP=3.10D-06 MaxDP=6.70D-05 DE=-1.96D-06 OVMax= 2.88D-04

 Initial convergence to 1.0D-05 achieved.  Increase integral accuracy.
 Cycle   7  Pass 1  IDiag  1:
 E= -75.7396098120591     Delta-E=       -0.000024108487 Rises=F Damp=F
 DIIS: error= 1.19D-04 at cycle   1 NSaved=   1.
 NSaved= 1 IEnMin= 1 EnMin= -75.7396098120591     IErMin= 1 ErrMin= 1.19D-04
 ErrMax= 1.19D-04  0.00D+00 EMaxC= 1.00D-01 BMatC= 1.98D-06 BMatP= 1.98D-06
 IDIUse=3 WtCom= 9.99D-01 WtEn= 1.19D-03
 Coeff-Com:  0.100D+01
 Coeff-En:   0.100D+01
 Coeff:      0.100D+01
 Gap=     0.483 Goal=   None    Shift=    0.000
 Gap=     0.303 Goal=   None    Shift=    0.000
 RMSDP=3.10D-06 MaxDP=6.70D-05 DE=-2.41D-05 OVMax= 9.27D-05

 Cycle   8  Pass 1  IDiag  1:
 E= -75.7396099352397     Delta-E=       -0.000000123181 Rises=F Damp=F
 DIIS: error= 6.63D-06 at cycle   2 NSaved=   2.
 NSaved= 2 IEnMin= 2 EnMin= -75.7396099352397     IErMin= 2 ErrMin= 6.63D-06
 ErrMax= 6.63D-06  0.00D+00 EMaxC= 1.00D-01 BMatC= 6.92D-09 BMatP= 1.98D-06
 IDIUse=1 WtCom= 1.00D+00 WtEn= 0.00D+00
 Coeff-Com: -0.169D-01 0.102D+01
 Coeff:     -0.169D-01 0.102D+01
 Gap=     0.483 Goal=   None    Shift=    0.000
 Gap=     0.303 Goal=   None    Shift=    0.000
 RMSDP=3.44D-07 MaxDP=8.52D-06 DE=-1.23D-07 OVMax= 3.33D-05

 Cycle   9  Pass 1  IDiag  1:
 E= -75.7396099379097     Delta-E=       -0.000000002670 Rises=F Damp=F
 DIIS: error= 2.83D-06 at cycle   3 NSaved=   3.
 NSaved= 3 IEnMin= 3 EnMin= -75.7396099379097     IErMin= 3 ErrMin= 2.83D-06
 ErrMax= 2.83D-06  0.00D+00 EMaxC= 1.00D-01 BMatC= 7.92D-10 BMatP= 6.92D-09
 IDIUse=1 WtCom= 1.00D+00 WtEn= 0.00D+00
 Coeff-Com:  0.384D-03-0.184D+00 0.118D+01
 Coeff:      0.384D-03-0.184D+00 0.118D+01
 Gap=     0.483 Goal=   None    Shift=    0.000
 Gap=     0.303 Goal=   None    Shift=    0.000
 RMSDP=1.95D-07 MaxDP=5.97D-06 DE=-2.67D-09 OVMax= 1.73D-05

 Cycle  10  Pass 1  IDiag  1:
 E= -75.7396099384273     Delta-E=       -0.000000000518 Rises=F Damp=F
 DIIS: error= 1.27D-06 at cycle   4 NSaved=   4.
 NSaved= 4 IEnMin= 4 EnMin= -75.7396099384273     IErMin= 4 ErrMin= 1.27D-06
 ErrMax= 1.27D-06  0.00D+00 EMaxC= 1.00D-01 BMatC= 1.48D-10 BMatP= 7.92D-10
 IDIUse=1 WtCom= 1.00D+00 WtEn= 0.00D+00
 Coeff-Com:  0.145D-02-0.527D-01-0.118D+00 0.117D+01
 Coeff:      0.145D-02-0.527D-01-0.118D+00 0.117D+01
 Gap=     0.483 Goal=   None    Shift=    0.000
 Gap=     0.303 Goal=   None    Shift=    0.000
 RMSDP=8.11D-08 MaxDP=2.54D-06 DE=-5.18D-10 OVMax= 8.27D-06

 Cycle  11  Pass 1  IDiag  1:
 E= -75.7396099385048     Delta-E=       -0.000000000077 Rises=F Damp=F
 DIIS: error= 7.26D-07 at cycle   5 NSaved=   5.
 NSaved= 5 IEnMin= 5 EnMin= -75.7396099385048     IErMin= 5 ErrMin= 7.26D-07
 ErrMax= 7.26D-07  0.00D+00 EMaxC= 1.00D-01 BMatC= 6.32D-11 BMatP= 1.48D-10
 IDIUse=1 WtCom= 1.00D+00 WtEn= 0.00D+00
 Coeff-Com:  0.783D-03 0.341D-02-0.274D+00 0.557D+00 0.713D+00
 Coeff:      0.783D-03 0.341D-02-0.274D+00 0.557D+00 0.713D+00
 Gap=     0.483 Goal=   None    Shift=    0.000
 Gap=     0.303 Goal=   None    Shift=    0.000
 RMSDP=3.14D-08 MaxDP=9.11D-07 DE=-7.74D-11 OVMax= 3.17D-06

 Cycle  12  Pass 1  IDiag  1:
 E= -75.7396099385205     Delta-E=       -0.000000000016 Rises=F Damp=F
 DIIS: error= 7.37D-08 at cycle   6 NSaved=   6.
 NSaved= 6 IEnMin= 6 EnMin= -75.7396099385205     IErMin= 6 ErrMin= 7.37D-08
 ErrMax= 7.37D-08  0.00D+00 EMaxC= 1.00D-01 BMatC= 8.08D-13 BMatP= 6.32D-11
 IDIUse=1 WtCom= 1.00D+00 WtEn= 0.00D+00
 Coeff-Com: -0.203D-03 0.471D-02 0.400D-01-0.145D+00-0.951D-01 0.120D+01
 Coeff:     -0.203D-03 0.471D-02 0.400D-01-0.145D+00-0.951D-01 0.120D+01
 Gap=     0.483 Goal=   None    Shift=    0.000
 Gap=     0.303 Goal=   None    Shift=    0.000
 RMSDP=4.97D-09 MaxDP=1.41D-07 DE=-1.57D-11 OVMax= 3.76D-07

 SCF Done:  E(UM062X) =  -75.7396099385     A.U. after   12 cycles
            NFock= 12  Conv=0.50D-08     -V/T= 2.0028
 <Sx>= 0.0000 <Sy>= 0.0000 <Sz>= 0.5000 <S**2>= 0.7529 S= 0.5015
 <L.S>= 0.000000000000E+00
 KE= 7.552522242898D+01 PE=-1.881351654777D+02 EE= 3.252682533322D+01
 Annihilation of the first spin contaminant:
 S**2 before annihilation     0.7529,   after     0.7500
 Leave Link  502 at Sat Apr 17 00:11:18 2021, MaxMem=   104857600 cpu:            1977.6 elap:              42.4
 (Enter /s/ls4/users/knvvv/bin/g16sse/l601.exe)
 Copying SCF densities to generalized density rwf, IOpCl= 1 IROHF=0.

 **********************************************************************

            Population analysis using the SCF density.

 **********************************************************************

 Orbital symmetries:
 Alpha Orbitals:
       Occupied  (SG) (SG) (SG) (PI) (PI)
       Virtual   (SG) (SG) (PI) (PI) (SG) (PI) (PI) (SG) (?A) (?A)
                 (?A) (?A) (PI) (PI) (PI) (SG) (PI) (?B) (?B) (?B)
                 (PI) (PI) (SG) (PI) (PI) (SG) (SG) (PHI) (PHI)
                 (DLTA) (DLTA) (?C) (?C) (PI) (PI) (SG) (PI) (?C)
                 (PI) (PI) (PI) (SG) (PHI) (PHI) (DLTA) (DLTA)
                 (SG) (PI) (PI) (SG) (PI) (PI) (DLTA) (DLTA) (SG)
                 (PI) (PI) (?D) (?D) (PHI) (PHI) (?E) (?E) (?E)
                 (?F) (?F) (?F) (?F) (?E) (?E) (?E) (PI) (PI) (?G)
                 (?G) (?G) (SG) (PI) (PI) (SG) (SG) (SG)
 Beta  Orbitals:
       Occupied  (SG) (SG) (SG) (?A)
       Virtual   (?A) (SG) (SG) (?A) (?A) (SG) (PI) (PI) (?B) (SG)
                 (SG) (?B) (?B) (?A) (?A) (SG) (?A) (?A) (?C) (?C)
                 (?C) (PI) (PI) (SG) (PI) (PI) (SG) (PHI) (PHI)
                 (SG) (?D) (?D) (?D) (PI) (?D) (PI) (?D) (PI) (PI)
                 (SG) (PI) (PI) (SG) (PHI) (PHI) (DLTA) (DLTA)
                 (SG) (PI) (PI) (SG) (DLTA) (DLTA) (PI) (PI) (SG)
                 (PI) (PI) (?E) (?E) (PHI) (PHI) (DLTA) (DLTA)
                 (SG) (?F) (?F) (?G) (?F) (?F) (?G) (?G) (PI) (PI)
                 (?H) (?H) (?H) (PI) (?H) (PI) (SG) (SG) (SG)
 Unable to determine electronic state:  an orbital has unidentified symmetry.
 Alpha  occ. eigenvalues --  -19.69768  -1.14569  -0.56627  -0.50574  -0.44249
 Alpha virt. eigenvalues --    0.04029   0.28477   0.29292   0.29521   0.30600
 Alpha virt. eigenvalues --    0.55459   0.55878   0.59056   0.92102   0.99493
 Alpha virt. eigenvalues --    1.03946   1.04018   1.29609   1.31399   1.33763
 Alpha virt. eigenvalues --    1.34553   1.37827   1.84936   2.00573   2.00633
 Alpha virt. eigenvalues --    2.17374   2.17676   2.43870   2.57955   2.58735
 Alpha virt. eigenvalues --    2.97696   3.09394   3.09537   3.09623   3.42785
 Alpha virt. eigenvalues --    3.42798   3.75102   3.75192   3.76995   3.80252
 Alpha virt. eigenvalues --    4.20815   4.27387   4.28598   4.30608   5.05288
 Alpha virt. eigenvalues --    5.10398   5.25387   5.68560   5.68563   6.36509
 Alpha virt. eigenvalues --    6.36561   6.93685   7.00300   7.01140   7.11262
 Alpha virt. eigenvalues --    7.56897   7.58043   7.59010   7.59050   8.16741
 Alpha virt. eigenvalues --    8.35638   8.37776   8.73211   8.73238   8.89363
 Alpha virt. eigenvalues --    8.89370   9.90892   9.90995  10.17709  10.56056
 Alpha virt. eigenvalues --   10.60868  10.71811  10.71889  10.75106  10.89241
 Alpha virt. eigenvalues --   10.89519  11.42268  11.48771  11.74762  11.78807
 Alpha virt. eigenvalues --   11.79051  13.42155  13.43515  13.49736  16.10908
 Alpha virt. eigenvalues --   47.60657 250.61404
  Beta  occ. eigenvalues --  -19.68095  -1.06196  -0.53434  -0.40662
  Beta virt. eigenvalues --   -0.10362   0.03921   0.28241   0.28645   0.29780
  Beta virt. eigenvalues --    0.30906   0.54782   0.55867   0.57471   0.90399
  Beta virt. eigenvalues --    1.00926   1.04870   1.06018   1.30072   1.31787
  Beta virt. eigenvalues --    1.35333   1.37637   1.38860   1.83617   2.00400
  Beta virt. eigenvalues --    2.00686   2.16545   2.18105   2.44206   2.57414
  Beta virt. eigenvalues --    2.60076   2.98021   3.10164   3.11272   3.13106
  Beta virt. eigenvalues --    3.43590   3.44354   3.77721   3.77730   3.78971
  Beta virt. eigenvalues --    3.80941   4.20363   4.29324   4.30786   4.32964
  Beta virt. eigenvalues --    5.11624   5.12317   5.27196   5.68602   5.68652
  Beta virt. eigenvalues --    6.37650   6.37658   6.95578   7.02360   7.02906
  Beta virt. eigenvalues --    7.12385   7.58972   7.59043   7.59380   7.60224
  Beta virt. eigenvalues --    8.19727   8.39498   8.39597   8.78159   8.79160
  Beta virt. eigenvalues --    8.92684   8.94880   9.93602   9.95968  10.19672
  Beta virt. eigenvalues --   10.59966  10.63515  10.82951  10.86029  10.89995
  Beta virt. eigenvalues --   10.99129  11.02329  11.51100  11.59236  11.79779
  Beta virt. eigenvalues --   11.95133  11.97181  13.52681  13.55089  13.59935
  Beta virt. eigenvalues --   16.16086  47.71793 250.60803
          Condensed to atoms (all electrons):
               1          2
     1  O    8.020739   0.263722
     2  H    0.263722   0.451816
          Atomic-Atomic Spin Densities.
               1          2
     1  O    0.997223   0.030095
     2  H    0.030095  -0.057413
 Mulliken charges and spin densities:
               1          2
     1  O   -0.284462   1.027318
     2  H    0.284462  -0.027318
 Sum of Mulliken charges =  -0.00000   1.00000
 Mulliken charges and spin densities with hydrogens summed into heavy atoms:
               1          2
     1  O   -0.000000   1.000000
 Electronic spatial extent (au):  <R**2>=             15.6090
 Charge=             -0.0000 electrons
 Dipole moment (field-independent basis, Debye):
    X=              0.0000    Y=              0.0000    Z=             -1.7186  Tot=              1.7186
 Quadrupole moment (field-independent basis, Debye-Ang):
   XX=             -6.7900   YY=             -5.5176   ZZ=             -4.6311
   XY=             -0.0000   XZ=              0.0000   YZ=              0.0000
 Traceless Quadrupole moment (field-independent basis, Debye-Ang):
   XX=             -1.1438   YY=              0.1286   ZZ=              1.0151
   XY=             -0.0000   XZ=              0.0000   YZ=              0.0000
 Octapole moment (field-independent basis, Debye-Ang**2):
  XXX=              0.0000  YYY=             -0.0000  ZZZ=             -2.0176  XYY=              0.0000
  XXY=             -0.0000  XXZ=             -0.2409  XZZ=              0.0000  YZZ=             -0.0000
  YYZ=             -0.1688  XYZ=             -0.0000
 Hexadecapole moment (field-independent basis, Debye-Ang**3):
 XXXX=             -5.9404 YYYY=             -3.9642 ZZZZ=             -5.5610 XXXY=             -0.0000
 XXXZ=             -0.0000 YYYX=             -0.0000 YYYZ=              0.0000 ZZZX=             -0.0000
 ZZZY=              0.0000 XXYY=             -1.6519 XXZZ=             -2.1981 YYZZ=             -1.8398
 XXYZ=              0.0000 YYXZ=             -0.0000 ZZXY=             -0.0000
 N-N= 4.343507776997D+00 E-N=-1.881351647277D+02  KE= 7.552522242898D+01
                          Isotropic Fermi Contact Couplings
        Atom                 a.u.       MegaHertz       Gauss      10(-4) cm-1
     1  O(17)              0.14639     -88.74200     -31.66535     -29.60114
     2  H(1)              -0.01647     -73.60938     -26.26566     -24.55345
 PrsmSu:  requested number of processors reduced to:  21 ShMem   1 Linda.
 --------------------------------------------------------
       Center         ----  Spin Dipole Couplings  ----
                      3XX-RR        3YY-RR        3ZZ-RR
 --------------------------------------------------------
     1   Atom       -1.942699      3.870453     -1.927753
     2   Atom       -0.133005     -0.035734      0.168740
 --------------------------------------------------------
                        XY            XZ            YZ
 --------------------------------------------------------
     1   Atom        0.000000      0.000000      0.000000
     2   Atom        0.000000      0.000000      0.000000
 --------------------------------------------------------


 ---------------------------------------------------------------------------------
              Anisotropic Spin Dipole Couplings in Principal Axis System
 ---------------------------------------------------------------------------------

       Atom             a.u.   MegaHertz   Gauss  10(-4) cm-1        Axes

              Baa    -1.9427   140.572    50.160    46.890  1.0000  0.0000  0.0000
     1 O(17)  Bbb    -1.9278   139.491    49.774    46.529  0.0000  0.0000  1.0000
              Bcc     3.8705  -280.063   -99.934   -93.419 -0.0000  1.0000  0.0000
 
              Baa    -0.1330   -70.965   -25.322   -23.672  1.0000  0.0000  0.0000
     2 H(1)   Bbb    -0.0357   -19.066    -6.803    -6.360 -0.0000  1.0000  0.0000
              Bcc     0.1687    90.032    32.126    30.031  0.0000  0.0000  1.0000
 

 ---------------------------------------------------------------------------------

 PrsmSu:  requested number of processors reduced to:  21 ShMem   1 Linda.
 No NMR shielding tensors so no spin-rotation constants.
 Leave Link  601 at Sat Apr 17 00:11:20 2021, MaxMem=   104857600 cpu:              92.5 elap:               2.2
 (Enter /s/ls4/users/knvvv/bin/g16sse/l801.exe)
 DoSCS=F DFT=T ScalE2(SS,OS)=  1.000000  1.000000
 Range of M.O.s used for correlation:     1    87
 NBasis=    87 NAE=     5 NBE=     4 NFC=     0 NFV=     0
 NROrb=     87 NOA=     5 NOB=     4 NVA=    82 NVB=    83

 **** Warning!!: The largest alpha MO coefficient is  0.11896033D+02


 **** Warning!!: The largest beta MO coefficient is  0.11968530D+02

 Leave Link  801 at Sat Apr 17 00:11:20 2021, MaxMem=   104857600 cpu:               3.0 elap:               0.1
 (Enter /s/ls4/users/knvvv/bin/g16sse/l914.exe)
 UHF ground state
 Doing stability rather than CIS.
 Keep R1 and R2 ints in memory in symmetry-blocked form, NReq=79415062.
 FoFCou: FMM=F IPFlag=           0 FMFlag=           0 FMFlg1=           0
         NFxFlg=           0 DoJE=F BraDBF=F KetDBF=F FulRan=T
         wScrn=  0.000000 ICntrl=       600 IOpCl=  0 I1Cent=           0 NGrid=           0
         NMat0=    1 NMatS0=   3828 NMatT0=    0 NMatD0=    1 NMtDS0=    0 NMtDT0=    0
 Petite list used in FoFCou.
 CoulSu:  requested number of processors reduced to:  21 ShMem   1 Linda.
 MDV=   104857600 DFT=T DoStab=T Mixed=T DoRPA=F DoScal=F NonHer=F
 Making orbital integer symmetry assigments:
 Orbital symmetries:
 Alpha Orbitals:
       Occupied  (SG) (SG) (SG) (PI) (PI)
       Virtual   (SG) (SG) (PI) (PI) (SG) (PI) (PI) (SG) (?A) (?A)
                 (?A) (?A) (PI) (PI) (PI) (SG) (PI) (?B) (?B) (?B)
                 (PI) (PI) (SG) (PI) (PI) (SG) (SG) (PHI) (PHI)
                 (DLTA) (DLTA) (?C) (?C) (PI) (PI) (SG) (PI) (?C)
                 (PI) (PI) (PI) (SG) (PHI) (PHI) (DLTA) (DLTA)
                 (SG) (PI) (PI) (SG) (PI) (PI) (DLTA) (DLTA) (SG)
                 (PI) (PI) (?D) (?D) (PHI) (PHI) (?E) (?E) (?E)
                 (?F) (?F) (?F) (?F) (?E) (?E) (?E) (PI) (PI) (?G)
                 (?G) (?G) (SG) (PI) (PI) (SG) (SG) (SG)
 Beta  Orbitals:
       Occupied  (SG) (SG) (SG) (?A)
       Virtual   (?A) (SG) (SG) (?A) (?A) (SG) (PI) (PI) (?B) (SG)
                 (SG) (?B) (?B) (?A) (?A) (SG) (?A) (?A) (?C) (?C)
                 (?C) (PI) (PI) (SG) (PI) (PI) (SG) (PHI) (PHI)
                 (SG) (?D) (?D) (?D) (PI) (?D) (PI) (?D) (PI) (PI)
                 (SG) (PI) (PI) (SG) (PHI) (PHI) (DLTA) (DLTA)
                 (SG) (PI) (PI) (SG) (DLTA) (DLTA) (PI) (PI) (SG)
                 (PI) (PI) (?E) (?E) (PHI) (PHI) (DLTA) (DLTA)
                 (SG) (?F) (?F) (?G) (?F) (?F) (?G) (?G) (PI) (PI)
                 (?H) (?H) (?H) (PI) (?H) (PI) (SG) (SG) (SG)
    12 initial guesses have been made.
 Convergence on wavefunction:    0.001000000000000
 Davidson Disk Diagonalization:  ConvIn= 1.00D-03 SkipCon=T Conv= 1.00D-03.
 Max sub-space:  1484 roots to seek:    12 dimension of matrix:          742
 Iteration     1 Dimension    12 NMult     0 NNew     12
 CISAX will form    12 AO SS matrices at one time.
 NMat=    12 NSing=    12 JSym2X= 2.
 Excitation Energies [eV] at current iteration:
 Root      1 :     0.254192157370272
 Root      2 :     4.633397749591819
 Root      3 :     8.222210744378321
 Root      4 :     9.363002482533574
 Root      5 :    10.934797124476800
 Root      6 :    11.980715285567410
 Root      7 :    13.133044215724260
 Root      8 :    14.327610636916940
 Root      9 :    14.594279720416620
 Root     10 :    14.944342817169840
 Root     11 :    15.674977512143810
 Root     12 :    17.243269819313820
 Iteration     2 Dimension    24 NMult    12 NNew     12
 CISAX will form    12 AO SS matrices at one time.
 NMat=    12 NSing=    12 JSym2X= 2.
 Root      1 not converged, maximum delta is    0.037420782301188
 Excitation Energies [eV] at current iteration:
 Root      1 :     0.003690934763857   Change is   -0.250501222606416
 Root      2 :     3.929853018710579   Change is   -0.703544730881240
 Root      3 :     7.890467226448242   Change is   -0.331743517930080
 Root      4 :     8.988879490143985   Change is   -0.374122992389590
 Root      5 :    10.401435772709310   Change is   -0.533361351767487
 Root      6 :    10.738449089164420   Change is   -1.242266196402985
 Root      7 :    12.743894777505230   Change is   -0.389149438219032
 Root      8 :    13.952460359414530   Change is   -0.375150277502410
 Root      9 :    14.318569276289200   Change is   -2.924700543024613
 Root     10 :    14.422710960776890   Change is   -0.171568759639731
 Root     11 :    14.732980009322980   Change is   -0.211362807846861
 Root     12 :    15.369262180418100   Change is   -0.305715331725709
 Iteration     3 Dimension    27 NMult    24 NNew      3
 CISAX will form     3 AO SS matrices at one time.
 NMat=     3 NSing=     3 JSym2X= 2.
 Root      1 not converged, maximum delta is    0.007411685394516
 Excitation Energies [eV] at current iteration:
 Root      1 :    -0.000004834985475   Change is   -0.003695769749332
 Root      2 :     3.881623986554959   Change is   -0.048229032155620
 Root      3 :     7.883401337807466   Change is   -0.007065888640777
 Iteration     4 Dimension    30 NMult    27 NNew      3
 CISAX will form     3 AO SS matrices at one time.
 NMat=     3 NSing=     3 JSym2X= 2.
 Root      1 has converged.
 Excitation Energies [eV] at current iteration:
 Root      1 :    -0.000083290488075   Change is   -0.000078455502600
 Root      2 :     3.878973772337626   Change is   -0.002650214217334
 Root      3 :     7.883290790968151   Change is   -0.000110546839315
 Convergence achieved on expansion vectors.
 ***********************************************************************
 Stability analysis using <AA,BB:AA,BB> singles matrix:
 ***********************************************************************
 1PDM for each excited state written to RWF  633
 Ground to excited state transition densities written to RWF  633

 Eigenvectors of the stability matrix:
 
 Excited state symmetry could not be determined.
 Eigenvector   1:  2.005-?Sym  Eigenvalue=-0.0000031  <S**2>=0.755
      4B ->  5B        0.98066
      4B ->  8B       -0.18156
 The wavefunction is stable under the perturbations considered.
 Leave Link  914 at Sat Apr 17 00:11:25 2021, MaxMem=   104857600 cpu:             223.9 elap:               5.0
 (Enter /s/ls4/users/knvvv/bin/g16sse/l508.exe)
 The wavefunction is already stable.
 Leave Link  508 at Sat Apr 17 00:11:25 2021, MaxMem=   104857600 cpu:               2.2 elap:               0.1
 (Enter /s/ls4/users/knvvv/bin/g16sse/l601.exe)
 Copying SCF densities to generalized density rwf, IOpCl= 1 IROHF=0.

 **********************************************************************

            Population analysis using the SCF density.

 **********************************************************************

 Orbital symmetries:
 Alpha Orbitals:
       Occupied  (SG) (SG) (SG) (PI) (PI)
       Virtual   (SG) (SG) (PI) (PI) (SG) (PI) (PI) (SG) (?A) (?A)
                 (?A) (?A) (PI) (PI) (PI) (SG) (PI) (?B) (?B) (?B)
                 (PI) (PI) (SG) (PI) (PI) (SG) (SG) (PHI) (PHI)
                 (DLTA) (DLTA) (?C) (?C) (PI) (PI) (SG) (PI) (?C)
                 (PI) (PI) (PI) (SG) (PHI) (PHI) (DLTA) (DLTA)
                 (SG) (PI) (PI) (SG) (PI) (PI) (DLTA) (DLTA) (SG)
                 (PI) (PI) (?D) (?D) (PHI) (PHI) (?E) (?E) (?E)
                 (?F) (?F) (?F) (?F) (?E) (?E) (?E) (PI) (PI) (?G)
                 (?G) (?G) (SG) (PI) (PI) (SG) (SG) (SG)
 Beta  Orbitals:
       Occupied  (SG) (SG) (SG) (?A)
       Virtual   (?A) (SG) (SG) (?A) (?A) (SG) (PI) (PI) (?B) (SG)
                 (SG) (?B) (?B) (?A) (?A) (SG) (?A) (?A) (?C) (?C)
                 (?C) (PI) (PI) (SG) (PI) (PI) (SG) (PHI) (PHI)
                 (SG) (?D) (?D) (?D) (PI) (?D) (PI) (?D) (PI) (PI)
                 (SG) (PI) (PI) (SG) (PHI) (PHI) (DLTA) (DLTA)
                 (SG) (PI) (PI) (SG) (DLTA) (DLTA) (PI) (PI) (SG)
                 (PI) (PI) (?E) (?E) (PHI) (PHI) (DLTA) (DLTA)
                 (SG) (?F) (?F) (?G) (?F) (?F) (?G) (?G) (PI) (PI)
                 (?H) (?H) (?H) (PI) (?H) (PI) (SG) (SG) (SG)
 Unable to determine electronic state:  an orbital has unidentified symmetry.
 Alpha  occ. eigenvalues --  -19.69768  -1.14569  -0.56627  -0.50574  -0.44249
 Alpha virt. eigenvalues --    0.04029   0.28477   0.29292   0.29521   0.30600
 Alpha virt. eigenvalues --    0.55459   0.55878   0.59056   0.92102   0.99493
 Alpha virt. eigenvalues --    1.03946   1.04018   1.29609   1.31399   1.33763
 Alpha virt. eigenvalues --    1.34553   1.37827   1.84936   2.00573   2.00633
 Alpha virt. eigenvalues --    2.17374   2.17676   2.43870   2.57955   2.58735
 Alpha virt. eigenvalues --    2.97696   3.09394   3.09537   3.09623   3.42785
 Alpha virt. eigenvalues --    3.42798   3.75102   3.75192   3.76995   3.80252
 Alpha virt. eigenvalues --    4.20815   4.27387   4.28598   4.30608   5.05288
 Alpha virt. eigenvalues --    5.10398   5.25387   5.68560   5.68563   6.36509
 Alpha virt. eigenvalues --    6.36561   6.93685   7.00300   7.01140   7.11262
 Alpha virt. eigenvalues --    7.56897   7.58043   7.59010   7.59050   8.16741
 Alpha virt. eigenvalues --    8.35638   8.37776   8.73211   8.73238   8.89363
 Alpha virt. eigenvalues --    8.89370   9.90892   9.90995  10.17709  10.56056
 Alpha virt. eigenvalues --   10.60868  10.71811  10.71889  10.75106  10.89241
 Alpha virt. eigenvalues --   10.89519  11.42268  11.48771  11.74762  11.78807
 Alpha virt. eigenvalues --   11.79051  13.42155  13.43515  13.49736  16.10908
 Alpha virt. eigenvalues --   47.60657 250.61404
  Beta  occ. eigenvalues --  -19.68095  -1.06196  -0.53434  -0.40662
  Beta virt. eigenvalues --   -0.10362   0.03921   0.28241   0.28645   0.29780
  Beta virt. eigenvalues --    0.30906   0.54782   0.55867   0.57471   0.90399
  Beta virt. eigenvalues --    1.00926   1.04870   1.06018   1.30072   1.31787
  Beta virt. eigenvalues --    1.35333   1.37637   1.38860   1.83617   2.00400
  Beta virt. eigenvalues --    2.00686   2.16545   2.18105   2.44206   2.57414
  Beta virt. eigenvalues --    2.60076   2.98021   3.10164   3.11272   3.13106
  Beta virt. eigenvalues --    3.43590   3.44354   3.77721   3.77730   3.78971
  Beta virt. eigenvalues --    3.80941   4.20363   4.29324   4.30786   4.32964
  Beta virt. eigenvalues --    5.11624   5.12317   5.27196   5.68602   5.68652
  Beta virt. eigenvalues --    6.37650   6.37658   6.95578   7.02360   7.02906
  Beta virt. eigenvalues --    7.12385   7.58972   7.59043   7.59380   7.60224
  Beta virt. eigenvalues --    8.19727   8.39498   8.39597   8.78159   8.79160
  Beta virt. eigenvalues --    8.92684   8.94880   9.93602   9.95968  10.19672
  Beta virt. eigenvalues --   10.59966  10.63515  10.82951  10.86029  10.89995
  Beta virt. eigenvalues --   10.99129  11.02329  11.51100  11.59236  11.79779
  Beta virt. eigenvalues --   11.95133  11.97181  13.52681  13.55089  13.59935
  Beta virt. eigenvalues --   16.16086  47.71793 250.60803
          Condensed to atoms (all electrons):
               1          2
     1  O    8.020739   0.263722
     2  H    0.263722   0.451816
          Atomic-Atomic Spin Densities.
               1          2
     1  O    0.997223   0.030095
     2  H    0.030095  -0.057413
 Mulliken charges and spin densities:
               1          2
     1  O   -0.284462   1.027318
     2  H    0.284462  -0.027318
 Sum of Mulliken charges =  -0.00000   1.00000
 Mulliken charges and spin densities with hydrogens summed into heavy atoms:
               1          2
     1  O   -0.000000   1.000000
 Electronic spatial extent (au):  <R**2>=             15.6090
 Charge=             -0.0000 electrons
 Dipole moment (field-independent basis, Debye):
    X=              0.0000    Y=              0.0000    Z=             -1.7186  Tot=              1.7186
 Quadrupole moment (field-independent basis, Debye-Ang):
   XX=             -6.7900   YY=             -5.5176   ZZ=             -4.6311
   XY=             -0.0000   XZ=              0.0000   YZ=              0.0000
 Traceless Quadrupole moment (field-independent basis, Debye-Ang):
   XX=             -1.1438   YY=              0.1286   ZZ=              1.0151
   XY=             -0.0000   XZ=              0.0000   YZ=              0.0000
 Octapole moment (field-independent basis, Debye-Ang**2):
  XXX=              0.0000  YYY=             -0.0000  ZZZ=             -2.0176  XYY=              0.0000
  XXY=             -0.0000  XXZ=             -0.2409  XZZ=              0.0000  YZZ=             -0.0000
  YYZ=             -0.1688  XYZ=             -0.0000
 Hexadecapole moment (field-independent basis, Debye-Ang**3):
 XXXX=             -5.9404 YYYY=             -3.9642 ZZZZ=             -5.5610 XXXY=             -0.0000
 XXXZ=             -0.0000 YYYX=             -0.0000 YYYZ=              0.0000 ZZZX=             -0.0000
 ZZZY=              0.0000 XXYY=             -1.6519 XXZZ=             -2.1981 YYZZ=             -1.8398
 XXYZ=              0.0000 YYXZ=             -0.0000 ZZXY=             -0.0000
 N-N= 4.343507776997D+00 E-N=-1.881351647277D+02  KE= 7.552522242898D+01
                          Isotropic Fermi Contact Couplings
        Atom                 a.u.       MegaHertz       Gauss      10(-4) cm-1
     1  O(17)              0.14639     -88.74200     -31.66535     -29.60114
     2  H(1)              -0.01647     -73.60938     -26.26566     -24.55345
 PrsmSu:  requested number of processors reduced to:  21 ShMem   1 Linda.
 --------------------------------------------------------
       Center         ----  Spin Dipole Couplings  ----
                      3XX-RR        3YY-RR        3ZZ-RR
 --------------------------------------------------------
     1   Atom       -1.942699      3.870453     -1.927753
     2   Atom       -0.133005     -0.035734      0.168740
 --------------------------------------------------------
                        XY            XZ            YZ
 --------------------------------------------------------
     1   Atom        0.000000      0.000000      0.000000
     2   Atom        0.000000      0.000000      0.000000
 --------------------------------------------------------


 ---------------------------------------------------------------------------------
              Anisotropic Spin Dipole Couplings in Principal Axis System
 ---------------------------------------------------------------------------------

       Atom             a.u.   MegaHertz   Gauss  10(-4) cm-1        Axes

              Baa    -1.9427   140.572    50.160    46.890  1.0000  0.0000  0.0000
     1 O(17)  Bbb    -1.9278   139.491    49.774    46.529  0.0000  0.0000  1.0000
              Bcc     3.8705  -280.063   -99.934   -93.419 -0.0000  1.0000  0.0000
 
              Baa    -0.1330   -70.965   -25.322   -23.672  1.0000  0.0000  0.0000
     2 H(1)   Bbb    -0.0357   -19.066    -6.803    -6.360 -0.0000  1.0000  0.0000
              Bcc     0.1687    90.032    32.126    30.031  0.0000  0.0000  1.0000
 

 ---------------------------------------------------------------------------------

 PrsmSu:  requested number of processors reduced to:  21 ShMem   1 Linda.
 No NMR shielding tensors so no spin-rotation constants.
 Leave Link  601 at Sat Apr 17 00:11:27 2021, MaxMem=   104857600 cpu:              98.5 elap:               2.3
 (Enter /s/ls4/users/knvvv/bin/g16sse/l9999.exe)

 Test job not archived.
 1\1\GINC-N146\Stability\UM062X\def2QZVP\H1O1(2)\KNVVV\17-Apr-2021\0\\#
 P M062X/Def2QZVP Integral=UltraFineGrid SCF=NoSymm Stable=(RExt, Opt) 
 IOp(1/33=1)\\Database calculations.\\0,2\O,0,0.,0.,0.4873268427\H,0,0.
 ,0.,-0.4873272629\\Version=ES64L-G16RevA.03\HF=-75.7396099\S2=0.752908
 \S2-1=0.\S2A=0.750006\RMSD=4.968e-09\Dipole=0.,0.,-0.6761675\Quadrupol
 e=-0.8503656,0.0956353,0.7547304,0.,0.,0.\PG=C*V [C*(H1O1)]\\@


 JUST WHEN YOU THINK YOU'VE GOT THE WORLD ON A STRING,
 YOU FIND OUT IT'S YOUR LEASH.
 Job cpu time:       0 days  0 hours 44 minutes  7.7 seconds.
 Elapsed time:       0 days  0 hours  0 minutes 57.8 seconds.
 File lengths (MBytes):  RWF=     29 Int=      0 D2E=      0 Chk=      2 Scr=      1
 Normal termination of Gaussian 16 at Sat Apr 17 00:11:28 2021.
