 Entering Gaussian System, Link 0=/s/ls4/groups/g0130/bin/g16/g16
 Input=M062X--def2-QZVPPD--20_isomer10_H2O20Bind10_new.gjf
 Output=M062X--def2-QZVPPD--20_isomer10_H2O20Bind10_new.log
 Initial command:
 /s/ls4/groups/g0130/bin/g16/l1.exe "/dev/shm/scratch_knvvv/Gau-19367.inp" -scrdir="/dev/shm/scratch_knvvv/"
 Entering Link 1 = /s/ls4/groups/g0130/bin/g16/l1.exe PID=     19368.
  
 Copyright (c) 1988,1990,1992,1993,1995,1998,2003,2009,2016,
            Gaussian, Inc.  All Rights Reserved.
  
 This is part of the Gaussian(R) 16 program.  It is based on
 the Gaussian(R) 09 system (copyright 2009, Gaussian, Inc.),
 the Gaussian(R) 03 system (copyright 2003, Gaussian, Inc.),
 the Gaussian(R) 98 system (copyright 1998, Gaussian, Inc.),
 the Gaussian(R) 94 system (copyright 1995, Gaussian, Inc.),
 the Gaussian 92(TM) system (copyright 1992, Gaussian, Inc.),
 the Gaussian 90(TM) system (copyright 1990, Gaussian, Inc.),
 the Gaussian 88(TM) system (copyright 1988, Gaussian, Inc.),
 the Gaussian 86(TM) system (copyright 1986, Carnegie Mellon
 University), and the Gaussian 82(TM) system (copyright 1983,
 Carnegie Mellon University). Gaussian is a federally registered
 trademark of Gaussian, Inc.
  
 This software contains proprietary and confidential information,
 including trade secrets, belonging to Gaussian, Inc.
  
 This software is provided under written license and may be
 used, copied, transmitted, or stored only in accord with that
 written license.
  
 The following legend is applicable only to US Government
 contracts under FAR:
  
                    RESTRICTED RIGHTS LEGEND
  
 Use, reproduction and disclosure by the US Government is
 subject to restrictions as set forth in subparagraphs (a)
 and (c) of the Commercial Computer Software - Restricted
 Rights clause in FAR 52.227-19.
  
 Gaussian, Inc.
 340 Quinnipiac St., Bldg. 40, Wallingford CT 06492
  
  
 ---------------------------------------------------------------
 Warning -- This program may not be used in any manner that
 competes with the business of Gaussian, Inc. or will provide
 assistance to any competitor of Gaussian, Inc.  The licensee
 of this program is prohibited from giving any competitor of
 Gaussian, Inc. access to this program.  By using this program,
 the user acknowledges that Gaussian, Inc. is engaged in the
 business of creating and licensing software in the field of
 computational chemistry and represents and warrants to the
 licensee that it is not a competitor of Gaussian, Inc. and that
 it will not use this program in any manner prohibited above.
 ---------------------------------------------------------------
  

 Cite this work as:
 Gaussian 16, Revision A.03,
 M. J. Frisch, G. W. Trucks, H. B. Schlegel, G. E. Scuseria, 
 M. A. Robb, J. R. Cheeseman, G. Scalmani, V. Barone, 
 G. A. Petersson, H. Nakatsuji, X. Li, M. Caricato, A. V. Marenich, 
 J. Bloino, B. G. Janesko, R. Gomperts, B. Mennucci, H. P. Hratchian, 
 J. V. Ortiz, A. F. Izmaylov, J. L. Sonnenberg, D. Williams-Young, 
 F. Ding, F. Lipparini, F. Egidi, J. Goings, B. Peng, A. Petrone, 
 T. Henderson, D. Ranasinghe, V. G. Zakrzewski, J. Gao, N. Rega, 
 G. Zheng, W. Liang, M. Hada, M. Ehara, K. Toyota, R. Fukuda, 
 J. Hasegawa, M. Ishida, T. Nakajima, Y. Honda, O. Kitao, H. Nakai, 
 T. Vreven, K. Throssell, J. A. Montgomery, Jr., J. E. Peralta, 
 F. Ogliaro, M. J. Bearpark, J. J. Heyd, E. N. Brothers, K. N. Kudin, 
 V. N. Staroverov, T. A. Keith, R. Kobayashi, J. Normand, 
 K. Raghavachari, A. P. Rendell, J. C. Burant, S. S. Iyengar, 
 J. Tomasi, M. Cossi, J. M. Millam, M. Klene, C. Adamo, R. Cammi, 
 J. W. Ochterski, R. L. Martin, K. Morokuma, O. Farkas, 
 J. B. Foresman, and D. J. Fox, Gaussian, Inc., Wallingford CT, 2016.
 
 ******************************************
 Gaussian 16:  ES64L-G16RevA.03 25-Dec-2016
                29-Apr-2021 
 ******************************************
 %nprocshared=48
 Will use up to   48 processors via shared memory.
 %mem=90GB
 %chk=H2O2Bind10_new.chk
 %oldchk=H2O2Bind10.chk
 Copying data from "H2O2Bind10.chk" to current chk file "H2O2Bind10_new.chk"
 IOpt=  2 FromEx=T IUOpen= 4 IOptOp= 5 NList=   0 IFRang= 0 IUIn= 4 IUOut= 2.
 ----------------------------------------------------------------------
 #P M062X/GEN Integral=UltraFineGrid SCF=NoSymm Stable=(RExt, Opt,resta
 rt) IOp(1/33=1)
 ----------------------------------------------------------------------
 1/33=1,38=1,172=1/1;
 2/12=2,17=6,18=5,40=1/2;
 3/5=7,11=2,25=1,30=1,74=-55,75=-5,116=-2/1,2,3;
 4/5=7,9=2/1;
 5/5=2,38=6/2;
 6/7=2,8=2,9=2,10=2,28=1/1;
 8/6=1,10=90,11=11/1;
 9/8=-3,42=1,46=1,49=2/14;
 5/5=2,8=3,17=40,38=6/8(-2);
 6/7=2,8=2,9=2,10=2,28=1/1;
 99/5=1,9=1/99;
 Leave Link    1 at Thu Apr 29 17:16:14 2021, MaxMem= 12079595520 cpu:              53.8 elap:               1.2
 (Enter /s/ls4/groups/g0130/bin/g16/l101.exe)
 ONIOM data not found on unit 2.
 ----------------------
 Database calculations.
 ----------------------
 TstMul:  ICh=     0
 TstMul:  Mul=     1
 TstMul:  ICh=     0
 TstMul:  Mul=     1
 Symbolic Z-matrix:
 Charge =  0 Multiplicity = 1
 O                    -8.08974   1.07424   2.6046 
 H                    -7.89759   1.10545   1.6674 
 H                    -9.00889   0.81138   2.6525 
 O                    -2.49159   2.3663   -2.80884 
 H                    -2.71898   1.47274  -3.0659 
 H                    -3.32886   2.77138  -2.5827 
 O                    -3.08232  -0.3268   -3.16435 
 H                    -2.32303  -0.53723  -2.62081 
 H                    -2.99124  -0.89062  -3.93249 
 O                    -5.19488   0.47038  -1.57599 
 H                    -4.55893   0.05177  -2.15614 
 H                    -5.17907   1.39346  -1.82876 
 O                    -7.3326    1.37351   0.0329 
 H                    -6.79143   0.85208  -0.55995 
 H                    -6.85      2.19318   0.13998 
 O                    -0.92063  -0.66842  -1.6013 
 H                    -0.54195   0.20782  -1.5303 
 H                    -1.14053  -0.90849  -0.70117 
 O                    -0.28017   2.02098  -1.29395 
 H                    -1.05547   2.24118  -1.81033 
 H                     0.43002   2.51356  -1.70533 
 O                    -3.57224  -0.80251   5.02244 
 H                    -3.32189   0.0497    5.37924 
 H                    -4.38117  -0.63237   4.53983 
 O                    -5.07807   3.16685  -2.14526 
 H                    -5.32306   3.49035  -1.27833 
 H                    -5.6505    3.64051  -2.74875 
 O                    -1.72378  -0.79006   1.0359 
 H                    -1.58736  -1.22027   1.88002 
 H                    -1.3903    0.09818   1.16256 
 O                    -1.38989  -1.59057   3.65017 
 H                    -2.19611  -1.39462   4.12751 
 H                    -1.04786  -2.37959   4.07052 
 O                    -5.80195   3.62542   0.45574 
 H                    -6.31288   3.84476   1.23489 
 H                    -4.95409   3.34096   0.79699 
 O                    -4.68982   2.55521   3.98971 
 H                    -4.00495   2.42436   4.64551 
 H                    -5.05894   1.68302   3.85089 
 O                    -4.31894   0.01372   0.98155 
 H                    -4.61232   0.06137   0.07167 
 H                    -3.45806  -0.40211   0.93467 
 O                    -0.95175   1.79181   1.37125 
 H                    -0.63652   1.98406   0.48813 
 H                    -1.81269   2.2079    1.41463 
 O                    -7.03155   3.64282   2.8936 
 H                    -7.52584   2.82313   2.89765 
 H                    -6.26152   3.46138   3.43245 
 O                    -2.64251   1.74443   5.64778 
 H                    -1.87982   1.57966   5.09335 
 H                    -2.27631   2.07903   6.46642 
 O                    -3.56035   2.54737   1.51809 
 H                    -3.8552    2.67011   2.42044 
 H                    -3.83254   1.65705   1.29568 
 O                    -5.64048   0.07833   3.38457 
 H                    -6.55592   0.29126   3.20328 
 H                    -5.25152  -0.06311   2.52147 
 O                    -0.59881   1.04997   4.03034 
 H                    -0.71946   0.10808   3.90986 
 H                    -0.56655   1.40344   3.14137 
 
 RdStrC is calling ZToCFu for IStruc=1 NZ=    60.
 PrtBox:  NBox=    12 Levels=  2 BoxLen=    8.00 SMaxX=       19.65
          Shift=           17.024340            4.496775            7.431329
 Box      1 Number                   0 centers from      1 to      4:
 Box      2 Number                   1 centers from      5 to     11:
 Box      3 Number                   2 centers from     12 to     15:
 Box      4 Number                   3 centers from     16 to     21:
 Box      5 Number                   4 centers from     22 to     29:
 Box      6 Number                   5 centers from     30 to     42:
 Box      7 Number                   6 centers from     43 to     45:
 Box      8 Number                   7 centers from     46 to     50:
 Box      9 Number                  12 centers from     51 to     55:
 Box     10 Number                  14 centers from     56 to     57:
 Box     11 Number                  32 centers from     58 to     58:
 Box     12 Number                  34 centers from     59 to     60:
 After GenITR:
 ITRead=  0  0  0  0  0  0  0  0  0  0  0  0  0  0  0  0  0  0  0  0
 ITRead=  0  0  0  0  0  0  0  0  0  0  0  0  0  0  0  0  0  0  0  0
 ITRead=  0  0  0  0  0  0  0  0  0  0  0  0  0  0  0  0  0  0  0  0
 MicOpt= -1 -1 -1 -1 -1 -1 -1 -1 -1 -1 -1 -1 -1 -1 -1 -1 -1 -1 -1 -1
 MicOpt= -1 -1 -1 -1 -1 -1 -1 -1 -1 -1 -1 -1 -1 -1 -1 -1 -1 -1 -1 -1
 MicOpt= -1 -1 -1 -1 -1 -1 -1 -1 -1 -1 -1 -1 -1 -1 -1 -1 -1 -1 -1 -1
 ITRead=  0  0  0  0  0  0  0  0  0  0  0  0  0  0  0  0  0  0  0  0
 ITRead=  0  0  0  0  0  0  0  0  0  0  0  0  0  0  0  0  0  0  0  0
 ITRead=  0  0  0  0  0  0  0  0  0  0  0  0  0  0  0  0  0  0  0  0
 MicOpt= -1 -1 -1 -1 -1 -1 -1 -1 -1 -1 -1 -1 -1 -1 -1 -1 -1 -1 -1 -1
 MicOpt= -1 -1 -1 -1 -1 -1 -1 -1 -1 -1 -1 -1 -1 -1 -1 -1 -1 -1 -1 -1
 MicOpt= -1 -1 -1 -1 -1 -1 -1 -1 -1 -1 -1 -1 -1 -1 -1 -1 -1 -1 -1 -1
 NAtoms=     60 NQM=       60 NQMF=       0 NMMI=      0 NMMIF=      0
                NMic=       0 NMicF=      0.
                    Isotopes and Nuclear Properties:
 (Nuclear quadrupole moments (NQMom) in fm**2, nuclear magnetic moments (NMagM)
  in nuclear magnetons)

  Atom         1           2           3           4           5           6           7           8           9          10
 IAtWgt=          16           1           1          16           1           1          16           1           1          16
 AtmWgt=  15.9949146   1.0078250   1.0078250  15.9949146   1.0078250   1.0078250  15.9949146   1.0078250   1.0078250  15.9949146
 NucSpn=           0           1           1           0           1           1           0           1           1           0
 AtZEff=  -0.0000000  -0.0000000  -0.0000000  -0.0000000  -0.0000000  -0.0000000  -0.0000000  -0.0000000  -0.0000000  -0.0000000
 NQMom=    0.0000000   0.0000000   0.0000000   0.0000000   0.0000000   0.0000000   0.0000000   0.0000000   0.0000000   0.0000000
 NMagM=    0.0000000   2.7928460   2.7928460   0.0000000   2.7928460   2.7928460   0.0000000   2.7928460   2.7928460   0.0000000
 AtZNuc=   8.0000000   1.0000000   1.0000000   8.0000000   1.0000000   1.0000000   8.0000000   1.0000000   1.0000000   8.0000000

  Atom        11          12          13          14          15          16          17          18          19          20
 IAtWgt=           1           1          16           1           1          16           1           1          16           1
 AtmWgt=   1.0078250   1.0078250  15.9949146   1.0078250   1.0078250  15.9949146   1.0078250   1.0078250  15.9949146   1.0078250
 NucSpn=           1           1           0           1           1           0           1           1           0           1
 AtZEff=  -0.0000000  -0.0000000  -0.0000000  -0.0000000  -0.0000000  -0.0000000  -0.0000000  -0.0000000  -0.0000000  -0.0000000
 NQMom=    0.0000000   0.0000000   0.0000000   0.0000000   0.0000000   0.0000000   0.0000000   0.0000000   0.0000000   0.0000000
 NMagM=    2.7928460   2.7928460   0.0000000   2.7928460   2.7928460   0.0000000   2.7928460   2.7928460   0.0000000   2.7928460
 AtZNuc=   1.0000000   1.0000000   8.0000000   1.0000000   1.0000000   8.0000000   1.0000000   1.0000000   8.0000000   1.0000000

  Atom        21          22          23          24          25          26          27          28          29          30
 IAtWgt=           1          16           1           1          16           1           1          16           1           1
 AtmWgt=   1.0078250  15.9949146   1.0078250   1.0078250  15.9949146   1.0078250   1.0078250  15.9949146   1.0078250   1.0078250
 NucSpn=           1           0           1           1           0           1           1           0           1           1
 AtZEff=  -0.0000000  -0.0000000  -0.0000000  -0.0000000  -0.0000000  -0.0000000  -0.0000000  -0.0000000  -0.0000000  -0.0000000
 NQMom=    0.0000000   0.0000000   0.0000000   0.0000000   0.0000000   0.0000000   0.0000000   0.0000000   0.0000000   0.0000000
 NMagM=    2.7928460   0.0000000   2.7928460   2.7928460   0.0000000   2.7928460   2.7928460   0.0000000   2.7928460   2.7928460
 AtZNuc=   1.0000000   8.0000000   1.0000000   1.0000000   8.0000000   1.0000000   1.0000000   8.0000000   1.0000000   1.0000000

  Atom        31          32          33          34          35          36          37          38          39          40
 IAtWgt=          16           1           1          16           1           1          16           1           1          16
 AtmWgt=  15.9949146   1.0078250   1.0078250  15.9949146   1.0078250   1.0078250  15.9949146   1.0078250   1.0078250  15.9949146
 NucSpn=           0           1           1           0           1           1           0           1           1           0
 AtZEff=  -0.0000000  -0.0000000  -0.0000000  -0.0000000  -0.0000000  -0.0000000  -0.0000000  -0.0000000  -0.0000000  -0.0000000
 NQMom=    0.0000000   0.0000000   0.0000000   0.0000000   0.0000000   0.0000000   0.0000000   0.0000000   0.0000000   0.0000000
 NMagM=    0.0000000   2.7928460   2.7928460   0.0000000   2.7928460   2.7928460   0.0000000   2.7928460   2.7928460   0.0000000
 AtZNuc=   8.0000000   1.0000000   1.0000000   8.0000000   1.0000000   1.0000000   8.0000000   1.0000000   1.0000000   8.0000000

  Atom        41          42          43          44          45          46          47          48          49          50
 IAtWgt=           1           1          16           1           1          16           1           1          16           1
 AtmWgt=   1.0078250   1.0078250  15.9949146   1.0078250   1.0078250  15.9949146   1.0078250   1.0078250  15.9949146   1.0078250
 NucSpn=           1           1           0           1           1           0           1           1           0           1
 AtZEff=  -0.0000000  -0.0000000  -0.0000000  -0.0000000  -0.0000000  -0.0000000  -0.0000000  -0.0000000  -0.0000000  -0.0000000
 NQMom=    0.0000000   0.0000000   0.0000000   0.0000000   0.0000000   0.0000000   0.0000000   0.0000000   0.0000000   0.0000000
 NMagM=    2.7928460   2.7928460   0.0000000   2.7928460   2.7928460   0.0000000   2.7928460   2.7928460   0.0000000   2.7928460
 AtZNuc=   1.0000000   1.0000000   8.0000000   1.0000000   1.0000000   8.0000000   1.0000000   1.0000000   8.0000000   1.0000000

  Atom        51          52          53          54          55          56          57          58          59          60
 IAtWgt=           1          16           1           1          16           1           1          16           1           1
 AtmWgt=   1.0078250  15.9949146   1.0078250   1.0078250  15.9949146   1.0078250   1.0078250  15.9949146   1.0078250   1.0078250
 NucSpn=           1           0           1           1           0           1           1           0           1           1
 AtZEff=  -0.0000000  -0.0000000  -0.0000000  -0.0000000  -0.0000000  -0.0000000  -0.0000000  -0.0000000  -0.0000000  -0.0000000
 NQMom=    0.0000000   0.0000000   0.0000000   0.0000000   0.0000000   0.0000000   0.0000000   0.0000000   0.0000000   0.0000000
 NMagM=    2.7928460   0.0000000   2.7928460   2.7928460   0.0000000   2.7928460   2.7928460   0.0000000   2.7928460   2.7928460
 AtZNuc=   1.0000000   8.0000000   1.0000000   1.0000000   8.0000000   1.0000000   1.0000000   8.0000000   1.0000000   1.0000000
 No MM parameters found.
 Leave Link  101 at Thu Apr 29 17:16:15 2021, MaxMem= 12079595520 cpu:              12.1 elap:               0.3
 (Enter /s/ls4/groups/g0130/bin/g16/l202.exe)
 Stoichiometry    H40O20
 Framework group  C1[X(H40O20)]
 Deg. of freedom   174
 Full point group                 C1      NOp   1
 Largest Abelian subgroup         C1      NOp   1
 Largest concise Abelian subgroup C1      NOp   1
                         Standard orientation:                         
 ---------------------------------------------------------------------
 Center     Atomic      Atomic             Coordinates (Angstroms)
 Number     Number       Type             X           Y           Z
 ---------------------------------------------------------------------
      1          8           0        2.319854    3.707797    1.406083
      2          1           0        1.362779    3.723312    1.405721
      3          1           0        2.571703    4.450415    1.955011
      4          8           0       -4.205298    0.066307   -1.138693
      5          1           0       -4.383436    0.013765   -0.199682
      6          1           0       -3.814891    0.931693   -1.260843
      7          8           0       -4.353331   -0.259769    1.618099
      8          1           0       -3.980802   -1.134528    1.507410
      9          1           0       -5.107763   -0.391119    2.192393
     10          8           0       -2.368795    1.649017    1.419525
     11          1           0       -3.061022    1.031983    1.656852
     12          1           0       -2.643506    2.004381    0.574255
     13          8           0       -0.361621    3.613787    1.128021
     14          1           0       -1.043075    3.050381    1.494665
     15          1           0       -0.382918    3.435429    0.187825
     16          8           0       -3.284378   -2.663667    1.060114
     17          1           0       -3.320001   -2.720037    0.105240
     18          1           0       -2.351942   -2.719215    1.269180
     19          8           0       -3.193972   -2.375213   -1.705048
     20          1           0       -3.536796   -1.487603   -1.600861
     21          1           0       -3.761703   -2.776031   -2.363272
     22          8           0        3.756340   -1.556461    1.414135
     23          1           0        4.027989   -1.558631    0.496292
     24          1           0        3.455060   -0.661931    1.573129
     25          8           0       -3.021430    2.589628   -1.090063
     26          1           0       -2.130999    2.759528   -1.397472
     27          1           0       -3.499756    3.396083   -1.282586
     28          8           0       -0.533776   -2.478301    1.180585
     29          1           0        0.272253   -2.916079    1.454264
     30          1           0       -0.505651   -2.499778    0.224038
     31          8           0        1.967462   -3.567830    1.559359
     32          1           0        2.601946   -2.852161    1.597858
     33          1           0        2.325063   -4.237226    2.142680
     34          8           0       -0.338689    2.911054   -1.536272
     35          1           0        0.526145    3.305668   -1.648418
     36          1           0       -0.180747    1.968342   -1.587085
     37          8           0        2.899748    0.836131   -1.256348
     38          1           0        3.395781    0.035658   -1.427892
     39          1           0        2.867008    0.898240   -0.301726
     40          8           0       -0.048910    0.192734    1.300437
     41          1           0       -0.875122    0.654153    1.444304
     42          1           0       -0.269145   -0.732676    1.406960
     43          8           0       -0.441536   -2.353362   -1.530584
     44          1           0       -1.376639   -2.405196   -1.728398
     45          1           0       -0.224715   -1.427132   -1.636973
     46          8           0        2.305528    3.574517   -1.383704
     47          1           0        2.437837    3.742137   -0.450629
     48          1           0        2.670399    2.700890   -1.524695
     49          8           0        4.098597   -1.644347   -1.345839
     50          1           0        3.397410   -2.294348   -1.391340
     51          1           0        4.809874   -2.022010   -1.863227
     52          8           0        0.243892    0.274386   -1.381036
     53          1           0        1.184986    0.413356   -1.487153
     54          1           0        0.109149    0.257388   -0.433519
     55          8           0        2.579857    0.963692    1.442956
     56          1           0        2.594524    1.912639    1.567519
     57          1           0        1.657292    0.724289    1.531231
     58          8           0        2.097774   -3.448619   -1.217620
     59          1           0        2.031245   -3.642261   -0.282575
     60          1           0        1.213664   -3.183631   -1.471322
 ---------------------------------------------------------------------
 Rotational constants (GHZ):           0.1852784           0.1589701           0.1110764
 Leave Link  202 at Thu Apr 29 17:16:15 2021, MaxMem= 12079595520 cpu:               6.4 elap:               0.2
 (Enter /s/ls4/groups/g0130/bin/g16/l301.exe)
 General basis read from cards:  (5D, 7F)
 Centers:       2      3      5      6      8      9     11     12     14     15
 Centers:      17     18     20     21     23     24     26     27     29     30
 Centers:      32     33     35     36     38     39     41     42     44     45
 Centers:      47     48     50     51     53     54     56     57     59     60
 S 4 1.00
     Exponent=  1.9069169000D+02 Coefficients=  7.0815167000D-04
     Exponent=  2.8605532000D+01 Coefficients=  5.4678827000D-03
     Exponent=  6.5095943000D+00 Coefficients=  2.7966605000D-02
     Exponent=  1.8412455000D+00 Coefficients=  1.0764538000D-01
 S 1 1.00
     Exponent=  5.9853725000D-01 Coefficients=  1.0000000000D+00
 S 1 1.00
     Exponent=  2.1397624000D-01 Coefficients=  1.0000000000D+00
 S 1 1.00
     Exponent=  8.0316286000D-02 Coefficients=  1.0000000000D+00
 P 1 1.00
     Exponent=  2.2920000000D+00 Coefficients=  1.0000000000D+00
 P 1 1.00
     Exponent=  8.3800000000D-01 Coefficients=  1.0000000000D+00
 P 1 1.00
     Exponent=  2.9200000000D-01 Coefficients=  1.0000000000D+00
 P 1 1.00
     Exponent=  8.4063199228D-02 Coefficients=  1.0000000000D+00
 D 1 1.00
     Exponent=  2.0620000000D+00 Coefficients=  1.0000000000D+00
 D 1 1.00
     Exponent=  6.6200000000D-01 Coefficients=  1.0000000000D+00
 F 1 1.00
     Exponent=  1.3970000000D+00 Coefficients=  1.0000000000D+00
 ****
 Centers:       1      4      7     10     13     16     19     22     25     28
 Centers:      31     34     37     40     43     46     49     52     55     58
 S 8 1.00
     Exponent=  1.1650646908D+05 Coefficients=  4.0383857939D-05
     Exponent=  1.7504349724D+04 Coefficients=  3.1255139004D-04
     Exponent=  3.9934513230D+03 Coefficients=  1.6341473495D-03
     Exponent=  1.1330063186D+03 Coefficients=  6.8283224757D-03
     Exponent=  3.6999569594D+02 Coefficients=  2.4124410221D-02
     Exponent=  1.3362074349D+02 Coefficients=  7.2730206154D-02
     Exponent=  5.2035643649D+01 Coefficients=  1.7934429892D-01
     Exponent=  2.1461939313D+01 Coefficients=  3.3059588895D-01
 S 2 1.00
     Exponent=  8.9835051252D+01 Coefficients=  9.6468652996D-02
     Exponent=  2.6428010844D+01 Coefficients=  9.4117481120D-01
 S 1 1.00
     Exponent=  9.2822824649D+00 Coefficients=  1.0000000000D+00
 S 1 1.00
     Exponent=  4.0947728533D+00 Coefficients=  1.0000000000D+00
 S 1 1.00
     Exponent=  1.3255349078D+00 Coefficients=  1.0000000000D+00
 S 1 1.00
     Exponent=  5.1877230787D-01 Coefficients=  1.0000000000D+00
 S 1 1.00
     Exponent=  1.9772676454D-01 Coefficients=  1.0000000000D+00
 S 1 1.00
     Exponent=  6.9638535104D-02 Coefficients=  1.0000000000D+00
 P 5 1.00
     Exponent=  1.9115255810D+02 Coefficients=  2.5115697705D-03
     Exponent=  4.5233356739D+01 Coefficients=  2.0039240864D-02
     Exponent=  1.4353465922D+01 Coefficients=  9.3609064762D-02
     Exponent=  5.2422371832D+00 Coefficients=  3.0618127124D-01
     Exponent=  2.0792418599D+00 Coefficients=  6.7810501439D-01
 P 1 1.00
     Exponent=  8.4282371424D-01 Coefficients=  1.0000000000D+00
 P 1 1.00
     Exponent=  3.3617694891D-01 Coefficients=  1.0000000000D+00
 P 1 1.00
     Exponent=  1.2863997974D-01 Coefficients=  1.0000000000D+00
 P 1 1.00
     Exponent=  4.3598162776D-02 Coefficients=  1.0000000000D+00
 D 1 1.00
     Exponent=  3.7750000000D+00 Coefficients=  1.0000000000D+00
 D 1 1.00
     Exponent=  1.3000000000D+00 Coefficients=  1.0000000000D+00
 D 1 1.00
     Exponent=  4.4400000000D-01 Coefficients=  1.0000000000D+00
 D 1 1.00
     Exponent=  1.2546378695D-01 Coefficients=  1.0000000000D+00
 F 1 1.00
     Exponent=  2.6660000000D+00 Coefficients=  1.0000000000D+00
 F 1 1.00
     Exponent=  8.5900000000D-01 Coefficients=  1.0000000000D+00
 G 1 1.00
     Exponent=  1.8460000000D+00 Coefficients=  1.0000000000D+00
 ****
 Ernie: Thresh=  0.10000D-02 Tol=  0.10000D-05 Strict=F.
 There are  3160 symmetry adapted cartesian basis functions of A   symmetry.
 There are  2640 symmetry adapted basis functions of A   symmetry.
  2640 basis functions,  3680 primitive gaussians,  3160 cartesian basis functions
   100 alpha electrons      100 beta electrons
       nuclear repulsion energy      2387.4158355460 Hartrees.
 IExCor= 4336 DFT=T Ex+Corr=M062X ExCW=0 ScaHFX=  0.540000
 ScaDFX=  1.000000  1.000000  1.000000  1.000000 ScalE2=  1.000000  1.000000
 IRadAn=      5 IRanWt=     -1 IRanGd=            0 ICorTp=0 IEmpDi=  4
 NAtoms=   60 NActive=   60 NUniq=   60 SFac= 1.00D+00 NAtFMM=   60 NAOKFM=T Big=T
 Integral buffers will be    131072 words long.
 Raffenetti 2 integral format.
 Two-electron integral symmetry is turned on.
 Leave Link  301 at Thu Apr 29 17:16:16 2021, MaxMem= 12079595520 cpu:              14.8 elap:               0.4
 (Enter /s/ls4/groups/g0130/bin/g16/l302.exe)
 NPDir=0 NMtPBC=     1 NCelOv=     1 NCel=       1 NClECP=     1 NCelD=      1
         NCelK=      1 NCelE2=     1 NClLst=     1 CellRange=     0.0.
 One-electron integrals computed using PRISM.
 One-electron integral symmetry used in STVInt
 NBasis=  2640 RedAO= T EigKep=  1.07D-06  NBF=  2640
 NBsUse=  2638 1.00D-06 EigRej=  9.80D-07 NBFU=  2638
 Precomputing XC quadrature grid using
 IXCGrd= 4 IRadAn=           5 IRanWt=          -1 IRanGd=           0 AccXCQ= 0.00D+00.
 Generated NRdTot=       0 NPtTot=           0 NUsed=           0 NTot=          32
 NSgBfM=  3065  3057  3064  3065  3065 MxSgAt=    60 MxSgA2=    60.
 Leave Link  302 at Thu Apr 29 17:18:08 2021, MaxMem= 12079595520 cpu:            5290.5 elap:             112.5
 (Enter /s/ls4/groups/g0130/bin/g16/l303.exe)
 DipDrv:  MaxL=1.
 Leave Link  303 at Thu Apr 29 17:19:10 2021, MaxMem= 12079595520 cpu:            2894.8 elap:              61.7
 (Enter /s/ls4/groups/g0130/bin/g16/l401.exe)
 SCF restart from the checkpoint file:  "H2O2Bind10_new.chk"
 SCF N**3 symmetry information disabled.
 B after Tr=     0.000000    0.000000    0.000000
         Rot=    1.000000    0.000000    0.000000    0.000000 Ang=   0.00 deg.
 Guess basis will be translated and rotated to current coordinates.
 GSVD:  received Info=                   1 from GESDD.
 JPrj=2 DoOrth=T DoCkMO=T.
 Initial guess <Sx>= 0.0000 <Sy>= 0.0000 <Sz>= 0.0000 <S**2>= 0.0012 S= 0.0012
 Leave Link  401 at Thu Apr 29 17:21:31 2021, MaxMem= 12079595520 cpu:            6601.2 elap:             140.5
 (Enter /s/ls4/groups/g0130/bin/g16/l502.exe)
 Integral symmetry usage will be decided dynamically.
 UHF open shell SCF:
 Using DIIS extrapolation, IDIIS=  1040.
 NGot= 12079595520 LenX= 12059448408 LenY= 12049459648
 Requested convergence on RMS density matrix=1.00D-08 within 128 cycles.
 Requested convergence on MAX density matrix=1.00D-06.
 Requested convergence on             energy=1.00D-06.
 No special actions if energy rises.
 Fock matrices will be formed incrementally for  20 cycles.

 Cycle   1  Pass 1  IDiag  1:
 FoFJK:  IHMeth= 1 ICntrl=       0 DoSepK=F KAlg= 0 I1Cent=           0 FoldK=F
 IRaf= 730000000 NMat=       1 IRICut=       1 DoRegI=T DoRafI=F ISym2E= 0 IDoP0=0 IntGTp=1.
 FoFCou: FMM=T IPFlag=           0 FMFlag=      100000 FMFlg1=        2001
         NFxFlg=           0 DoJE=F BraDBF=F KetDBF=F FulRan=T
         wScrn=  0.000000 ICntrl=         0 IOpCl=  1 I1Cent=           0 NGrid=           0
         NMat0=    1 NMatS0=      1 NMatT0=    0 NMatD0=    1 NMtDS0=    0 NMtDT0=    0
 Symmetry not used in FoFCou.
 FMM levels:  10  Number of levels for PrismC:   9
 E= -1529.05402127009    
 DIIS: error= 5.91D-09 at cycle   1 NSaved=   1.
 NSaved= 1 IEnMin= 1 EnMin= -1529.05402127009     IErMin= 1 ErrMin= 5.91D-09
 ErrMax= 5.91D-09  0.00D+00 EMaxC= 1.00D-01 BMatC= 1.96D-13 BMatP= 1.96D-13
 IDIUse=1 WtCom= 1.00D+00 WtEn= 0.00D+00
 Coeff-Com:  0.100D+01
 Coeff:      0.100D+01
 Gap=     0.369 Goal=   None    Shift=    0.000
 Gap=     0.368 Goal=   None    Shift=    0.000
 RMSDP=1.35D-08 MaxDP=5.30D-06              OVMax= 7.10D-08

 Cycle   2  Pass 1  IDiag  1:
 RMSU=  1.30D-08    CP:  1.00D+00
 E= -1529.05402127003     Delta-E=        0.000000000060 Rises=F Damp=F
 DIIS: error= 1.54D-09 at cycle   2 NSaved=   2.
 NSaved= 2 IEnMin= 1 EnMin= -1529.05402127009     IErMin= 2 ErrMin= 1.54D-09
 ErrMax= 1.54D-09  0.00D+00 EMaxC= 1.00D-01 BMatC= 7.94D-14 BMatP= 1.96D-13
 IDIUse=1 WtCom= 1.00D+00 WtEn= 0.00D+00
 Coeff-Com:  0.321D+00 0.679D+00
 Coeff:      0.321D+00 0.679D+00
 Gap=     0.369 Goal=   None    Shift=    0.000
 Gap=     0.368 Goal=   None    Shift=    0.000
 RMSDP=3.74D-09 MaxDP=2.07D-06 DE= 6.00D-11 OVMax= 2.97D-08

 Cycle   3  Pass 1  IDiag  1:
 RMSU=  1.89D-09    CP:  1.00D+00  1.23D+00
 E= -1529.05402127006     Delta-E=       -0.000000000028 Rises=F Damp=F
 DIIS: error= 1.22D-09 at cycle   3 NSaved=   3.
 NSaved= 3 IEnMin= 1 EnMin= -1529.05402127009     IErMin= 3 ErrMin= 1.22D-09
 ErrMax= 1.22D-09  0.00D+00 EMaxC= 1.00D-01 BMatC= 2.49D-14 BMatP= 7.94D-14
 IDIUse=1 WtCom= 1.00D+00 WtEn= 0.00D+00
 Coeff-Com: -0.636D-01 0.240D+00 0.823D+00
 Coeff:     -0.636D-01 0.240D+00 0.823D+00
 Gap=     0.369 Goal=   None    Shift=    0.000
 Gap=     0.368 Goal=   None    Shift=    0.000
 RMSDP=3.90D-09 MaxDP=2.19D-06 DE=-2.82D-11 OVMax= 3.84D-08

 Cycle   4  Pass 1  IDiag  1:
 RMSU=  3.11D-10    CP:  1.00D+00  1.46D+00  2.07D+00
 E= -1529.05402127004     Delta-E=        0.000000000014 Rises=F Damp=F
 DIIS: error= 1.06D-09 at cycle   4 NSaved=   4.
 NSaved= 4 IEnMin= 1 EnMin= -1529.05402127009     IErMin= 4 ErrMin= 1.06D-09
 ErrMax= 1.06D-09  0.00D+00 EMaxC= 1.00D-01 BMatC= 9.16D-15 BMatP= 2.49D-14
 IDIUse=1 WtCom= 1.00D+00 WtEn= 0.00D+00
 Coeff-Com: -0.558D-01-0.220D+00-0.110D+00 0.139D+01
 Coeff:     -0.558D-01-0.220D+00-0.110D+00 0.139D+01
 Gap=     0.369 Goal=   None    Shift=    0.000
 Gap=     0.368 Goal=   None    Shift=    0.000
 RMSDP=4.42D-09 MaxDP=2.66D-06 DE= 1.41D-11 OVMax= 5.03D-08

 Cycle   5  Pass 1  IDiag  1:
 RMSU=  6.94D-10    CP:  1.00D+00  1.72D+00  3.00D+00  3.00D+00
 E= -1529.05402127006     Delta-E=       -0.000000000020 Rises=F Damp=F
 DIIS: error= 6.68D-10 at cycle   5 NSaved=   5.
 NSaved= 5 IEnMin= 1 EnMin= -1529.05402127009     IErMin= 5 ErrMin= 6.68D-10
 ErrMax= 6.68D-10  0.00D+00 EMaxC= 1.00D-01 BMatC= 4.44D-15 BMatP= 9.16D-15
 IDIUse=1 WtCom= 1.00D+00 WtEn= 0.00D+00
 Coeff-Com:  0.423D-01-0.182D+00-0.503D+00 0.372D+00 0.127D+01
 Coeff:      0.423D-01-0.182D+00-0.503D+00 0.372D+00 0.127D+01
 Gap=     0.369 Goal=   None    Shift=    0.000
 Gap=     0.368 Goal=   None    Shift=    0.000
 RMSDP=3.96D-09 MaxDP=2.53D-06 DE=-1.96D-11 OVMax= 4.83D-08

 Cycle   6  Pass 1  IDiag  1:
 RMSU=  1.18D-09    CP:  1.00D+00  1.94D+00  3.00D+00  3.00D+00  3.00D+00
 E= -1529.05402126991     Delta-E=        0.000000000150 Rises=F Damp=F
 DIIS: error= 4.09D-10 at cycle   6 NSaved=   6.
 NSaved= 6 IEnMin= 1 EnMin= -1529.05402127009     IErMin= 6 ErrMin= 4.09D-10
 ErrMax= 4.09D-10  0.00D+00 EMaxC= 1.00D-01 BMatC= 1.61D-15 BMatP= 4.44D-15
 IDIUse=1 WtCom= 1.00D+00 WtEn= 0.00D+00
 Coeff-Com:  0.371D-01-0.153D-01-0.179D+00-0.205D+00 0.476D+00 0.886D+00
 Coeff:      0.371D-01-0.153D-01-0.179D+00-0.205D+00 0.476D+00 0.886D+00
 Gap=     0.369 Goal=   None    Shift=    0.000
 Gap=     0.368 Goal=   None    Shift=    0.000
 RMSDP=1.58D-09 MaxDP=1.07D-06 DE= 1.50D-10 OVMax= 2.07D-08

 Cycle   7  Pass 1  IDiag  1:
 RMSU=  4.80D-10    CP:  1.00D+00  2.01D+00  3.00D+00  3.00D+00  3.00D+00
                    CP:  1.85D+00
 E= -1529.05402127003     Delta-E=       -0.000000000119 Rises=F Damp=F
 DIIS: error= 2.47D-10 at cycle   7 NSaved=   7.
 NSaved= 7 IEnMin= 1 EnMin= -1529.05402127009     IErMin= 7 ErrMin= 2.47D-10
 ErrMax= 2.47D-10  0.00D+00 EMaxC= 1.00D-01 BMatC= 6.49D-16 BMatP= 1.61D-15
 IDIUse=1 WtCom= 1.00D+00 WtEn= 0.00D+00
 Coeff-Com:  0.172D-02 0.719D-01 0.132D+00-0.240D+00-0.368D+00 0.256D+00
 Coeff-Com:  0.115D+01
 Coeff:      0.172D-02 0.719D-01 0.132D+00-0.240D+00-0.368D+00 0.256D+00
 Coeff:      0.115D+01
 Gap=     0.369 Goal=   None    Shift=    0.000
 Gap=     0.368 Goal=   None    Shift=    0.000
 RMSDP=1.30D-09 MaxDP=8.55D-07 DE=-1.19D-10 OVMax= 1.60D-08

 SCF Done:  E(UM062X) =  -1529.05402127     A.U. after    7 cycles
            NFock=  7  Conv=0.13D-08     -V/T= 2.0024
 <Sx>= 0.0000 <Sy>= 0.0000 <Sz>= 0.0000 <S**2>= 0.0012 S= 0.0012
 <L.S>=  0.00000000000    
 KE= 1.525360781108D+03 PE=-8.391756066451D+03 EE= 2.949925428527D+03
 Annihilation of the first spin contaminant:
 S**2 before annihilation     0.0012,   after     0.0000
 Leave Link  502 at Thu Apr 29 19:48:43 2021, MaxMem= 12079595520 cpu:          422157.9 elap:            8831.8
 (Enter /s/ls4/groups/g0130/bin/g16/l601.exe)
 Copying SCF densities to generalized density rwf, IOpCl= 1 IROHF=0.

 **********************************************************************

            Population analysis using the SCF density.

 **********************************************************************

 Orbital symmetries:
 Alpha Orbitals:
       Occupied  (A) (A) (A) (A) (A) (A) (A) (A) (A) (A) (A) (A)
                 (A) (A) (A) (A) (A) (A) (A) (A) (A) (A) (A) (A)
                 (A) (A) (A) (A) (A) (A) (A) (A) (A) (A) (A) (A)
                 (A) (A) (A) (A) (A) (A) (A) (A) (A) (A) (A) (A)
                 (A) (A) (A) (A) (A) (A) (A) (A) (A) (A) (A) (A)
                 (A) (A) (A) (A) (A) (A) (A) (A) (A) (A) (A) (A)
                 (A) (A) (A) (A) (A) (A) (A) (A) (A) (A) (A) (A)
                 (A) (A) (A) (A) (A) (A) (A) (A) (A) (A) (A) (A)
                 (A) (A) (A) (A)
       Virtual   (A) (A) (A) (A) (A) (A) (A) (A) (A) (A) (A) (A)
                 (A) (A) (A) (A) (A) (A) (A) (A) (A) (A) (A) (A)
                 (A) (A) (A) (A) (A) (A) (A) (A) (A) (A) (A) (A)
                 (A) (A) (A) (A) (A) (A) (A) (A) (A) (A) (A) (A)
                 (A) (A) (A) (A) (A) (A) (A) (A) (A) (A) (A) (A)
                 (A) (A) (A) (A) (A) (A) (A) (A) (A) (A) (A) (A)
                 (A) (A) (A) (A) (A) (A) (A) (A) (A) (A) (A) (A)
                 (A) (A) (A) (A) (A) (A) (A) (A) (A) (A) (A) (A)
                 (A) (A) (A) (A) (A) (A) (A) (A) (A) (A) (A) (A)
                 (A) (A) (A) (A) (A) (A) (A) (A) (A) (A) (A) (A)
                 (A) (A) (A) (A) (A) (A) (A) (A) (A) (A) (A) (A)
                 (A) (A) (A) (A) (A) (A) (A) (A) (A) (A) (A) (A)
                 (A) (A) (A) (A) (A) (A) (A) (A) (A) (A) (A) (A)
                 (A) (A) (A) (A) (A) (A) (A) (A) (A) (A) (A) (A)
                 (A) (A) (A) (A) (A) (A) (A) (A) (A) (A) (A) (A)
                 (A) (A) (A) (A) (A) (A) (A) (A) (A) (A) (A) (A)
                 (A) (A) (A) (A) (A) (A) (A) (A) (A) (A) (A) (A)
                 (A) (A) (A) (A) (A) (A) (A) (A) (A) (A) (A) (A)
                 (A) (A) (A) (A) (A) (A) (A) (A) (A) (A) (A) (A)
                 (A) (A) (A) (A) (A) (A) (A) (A) (A) (A) (A) (A)
                 (A) (A) (A) (A) (A) (A) (A) (A) (A) (A) (A) (A)
                 (A) (A) (A) (A) (A) (A) (A) (A) (A) (A) (A) (A)
                 (A) (A) (A) (A) (A) (A) (A) (A) (A) (A) (A) (A)
                 (A) (A) (A) (A) (A) (A) (A) (A) (A) (A) (A) (A)
                 (A) (A) (A) (A) (A) (A) (A) (A) (A) (A) (A) (A)
                 (A) (A) (A) (A) (A) (A) (A) (A) (A) (A) (A) (A)
                 (A) (A) (A) (A) (A) (A) (A) (A) (A) (A) (A) (A)
                 (A) (A) (A) (A) (A) (A) (A) (A) (A) (A) (A) (A)
                 (A) (A) (A) (A) (A) (A) (A) (A) (A) (A) (A) (A)
                 (A) (A) (A) (A) (A) (A) (A) (A) (A) (A) (A) (A)
                 (A) (A) (A) (A) (A) (A) (A) (A) (A) (A) (A) (A)
                 (A) (A) (A) (A) (A) (A) (A) (A) (A) (A) (A) (A)
                 (A) (A) (A) (A) (A) (A) (A) (A) (A) (A) (A) (A)
                 (A) (A) (A) (A) (A) (A) (A) (A) (A) (A) (A) (A)
                 (A) (A) (A) (A) (A) (A) (A) (A) (A) (A) (A) (A)
                 (A) (A) (A) (A) (A) (A) (A) (A) (A) (A) (A) (A)
                 (A) (A) (A) (A) (A) (A) (A) (A) (A) (A) (A) (A)
                 (A) (A) (A) (A) (A) (A) (A) (A) (A) (A) (A) (A)
                 (A) (A) (A) (A) (A) (A) (A) (A) (A) (A) (A) (A)
                 (A) (A) (A) (A) (A) (A) (A) (A) (A) (A) (A) (A)
                 (A) (A) (A) (A) (A) (A) (A) (A) (A) (A) (A) (A)
                 (A) (A) (A) (A) (A) (A) (A) (A) (A) (A) (A) (A)
                 (A) (A) (A) (A) (A) (A) (A) (A) (A) (A) (A) (A)
                 (A) (A) (A) (A) (A) (A) (A) (A) (A) (A) (A) (A)
                 (A) (A) (A) (A) (A) (A) (A) (A) (A) (A) (A) (A)
                 (A) (A) (A) (A) (A) (A) (A) (A) (A) (A) (A) (A)
                 (A) (A) (A) (A) (A) (A) (A) (A) (A) (A) (A) (A)
                 (A) (A) (A) (A) (A) (A) (A) (A) (A) (A) (A) (A)
                 (A) (A) (A) (A) (A) (A) (A) (A) (A) (A) (A) (A)
                 (A) (A) (A) (A) (A) (A) (A) (A) (A) (A) (A) (A)
                 (A) (A) (A) (A) (A) (A) (A) (A) (A) (A) (A) (A)
                 (A) (A) (A) (A) (A) (A) (A) (A) (A) (A) (A) (A)
                 (A) (A) (A) (A) (A) (A) (A) (A) (A) (A) (A) (A)
                 (A) (A) (A) (A) (A) (A) (A) (A) (A) (A) (A) (A)
                 (A) (A) (A) (A) (A) (A) (A) (A) (A) (A) (A) (A)
                 (A) (A) (A) (A) (A) (A) (A) (A) (A) (A) (A) (A)
                 (A) (A) (A) (A) (A) (A) (A) (A) (A) (A) (A) (A)
                 (A) (A) (A) (A) (A) (A) (A) (A) (A) (A) (A) (A)
                 (A) (A) (A) (A) (A) (A) (A) (A) (A) (A) (A) (A)
                 (A) (A) (A) (A) (A) (A) (A) (A) (A) (A) (A) (A)
                 (A) (A) (A) (A) (A) (A) (A) (A) (A) (A) (A) (A)
                 (A) (A) (A) (A) (A) (A) (A) (A) (A) (A) (A) (A)
                 (A) (A) (A) (A) (A) (A) (A) (A) (A) (A) (A) (A)
                 (A) (A) (A) (A) (A) (A) (A) (A) (A) (A) (A) (A)
                 (A) (A) (A) (A) (A) (A) (A) (A) (A) (A) (A) (A)
                 (A) (A) (A) (A) (A) (A) (A) (A) (A) (A) (A) (A)
                 (A) (A) (A) (A) (A) (A) (A) (A) (A) (A) (A) (A)
                 (A) (A) (A) (A) (A) (A) (A) (A) (A) (A) (A) (A)
                 (A) (A) (A) (A) (A) (A) (A) (A) (A) (A) (A) (A)
                 (A) (A) (A) (A) (A) (A) (A) (A) (A) (A) (A) (A)
                 (A) (A) (A) (A) (A) (A) (A) (A) (A) (A) (A) (A)
                 (A) (A) (A) (A) (A) (A) (A) (A) (A) (A) (A) (A)
                 (A) (A) (A) (A) (A) (A) (A) (A) (A) (A) (A) (A)
                 (A) (A) (A) (A) (A) (A) (A) (A) (A) (A) (A) (A)
                 (A) (A) (A) (A) (A) (A) (A) (A) (A) (A) (A) (A)
                 (A) (A) (A) (A) (A) (A) (A) (A) (A) (A) (A) (A)
                 (A) (A) (A) (A) (A) (A) (A) (A) (A) (A) (A) (A)
                 (A) (A) (A) (A) (A) (A) (A) (A) (A) (A) (A) (A)
                 (A) (A) (A) (A) (A) (A) (A) (A) (A) (A) (A) (A)
                 (A) (A) (A) (A) (A) (A) (A) (A) (A) (A) (A) (A)
                 (A) (A) (A) (A) (A) (A) (A) (A) (A) (A) (A) (A)
                 (A) (A) (A) (A) (A) (A) (A) (A) (A) (A) (A) (A)
                 (A) (A) (A) (A) (A) (A) (A) (A) (A) (A) (A) (A)
                 (A) (A) (A) (A) (A) (A) (A) (A) (A) (A) (A) (A)
                 (A) (A) (A) (A) (A) (A) (A) (A) (A) (A) (A) (A)
                 (A) (A) (A) (A) (A) (A) (A) (A) (A) (A) (A) (A)
                 (A) (A) (A) (A) (A) (A) (A) (A) (A) (A) (A) (A)
                 (A) (A) (A) (A) (A) (A) (A) (A) (A) (A) (A) (A)
                 (A) (A) (A) (A) (A) (A) (A) (A) (A) (A) (A) (A)
                 (A) (A) (A) (A) (A) (A) (A) (A) (A) (A) (A) (A)
                 (A) (A) (A) (A) (A) (A) (A) (A) (A) (A) (A) (A)
                 (A) (A) (A) (A) (A) (A) (A) (A) (A) (A) (A) (A)
                 (A) (A) (A) (A) (A) (A) (A) (A) (A) (A) (A) (A)
                 (A) (A) (A) (A) (A) (A) (A) (A) (A) (A) (A) (A)
                 (A) (A) (A) (A) (A) (A) (A) (A) (A) (A) (A) (A)
                 (A) (A) (A) (A) (A) (A) (A) (A) (A) (A) (A) (A)
                 (A) (A) (A) (A) (A) (A) (A) (A) (A) (A) (A) (A)
                 (A) (A) (A) (A) (A) (A) (A) (A) (A) (A) (A) (A)
                 (A) (A) (A) (A) (A) (A) (A) (A) (A) (A) (A) (A)
                 (A) (A) (A) (A) (A) (A) (A) (A) (A) (A) (A) (A)
                 (A) (A) (A) (A) (A) (A) (A) (A) (A) (A) (A) (A)
                 (A) (A) (A) (A) (A) (A) (A) (A) (A) (A) (A) (A)
                 (A) (A) (A) (A) (A) (A) (A) (A) (A) (A) (A) (A)
                 (A) (A) (A) (A) (A) (A) (A) (A) (A) (A) (A) (A)
                 (A) (A) (A) (A) (A) (A) (A) (A) (A) (A) (A) (A)
                 (A) (A) (A) (A) (A) (A) (A) (A) (A) (A) (A) (A)
                 (A) (A) (A) (A) (A) (A) (A) (A) (A) (A) (A) (A)
                 (A) (A) (A) (A) (A) (A) (A) (A) (A) (A) (A) (A)
                 (A) (A) (A) (A) (A) (A) (A) (A) (A) (A) (A) (A)
                 (A) (A) (A) (A) (A) (A) (A) (A) (A) (A) (A) (A)
                 (A) (A) (A) (A) (A) (A) (A) (A) (A) (A) (A) (A)
                 (A) (A) (A) (A) (A) (A) (A) (A) (A) (A) (A) (A)
                 (A) (A) (A) (A) (A) (A) (A) (A) (A) (A) (A) (A)
                 (A) (A) (A) (A) (A) (A) (A) (A) (A) (A) (A) (A)
                 (A) (A) (A) (A) (A) (A) (A) (A) (A) (A) (A) (A)
                 (A) (A) (A) (A) (A) (A) (A) (A) (A) (A) (A) (A)
                 (A) (A) (A) (A) (A) (A) (A) (A) (A) (A) (A) (A)
                 (A) (A) (A) (A) (A) (A) (A) (A) (A) (A) (A) (A)
                 (A) (A) (A) (A) (A) (A) (A) (A) (A) (A) (A) (A)
                 (A) (A) (A) (A) (A) (A) (A) (A) (A) (A) (A) (A)
                 (A) (A) (A) (A) (A) (A) (A) (A) (A) (A) (A) (A)
                 (A) (A) (A) (A) (A) (A) (A) (A) (A) (A) (A) (A)
                 (A) (A) (A) (A) (A) (A) (A) (A) (A) (A) (A) (A)
                 (A) (A) (A) (A) (A) (A) (A) (A) (A) (A) (A) (A)
                 (A) (A) (A) (A) (A) (A) (A) (A) (A) (A) (A) (A)
                 (A) (A) (A) (A) (A) (A) (A) (A) (A) (A) (A) (A)
                 (A) (A) (A) (A) (A) (A) (A) (A) (A) (A) (A) (A)
                 (A) (A) (A) (A) (A) (A) (A) (A) (A) (A) (A) (A)
                 (A) (A) (A) (A) (A) (A) (A) (A) (A) (A) (A) (A)
                 (A) (A) (A) (A) (A) (A) (A) (A) (A) (A) (A) (A)
                 (A) (A) (A) (A) (A) (A) (A) (A) (A) (A) (A) (A)
                 (A) (A) (A) (A) (A) (A) (A) (A) (A) (A) (A) (A)
                 (A) (A) (A) (A) (A) (A) (A) (A) (A) (A) (A) (A)
                 (A) (A) (A) (A) (A) (A) (A) (A) (A) (A) (A) (A)
                 (A) (A) (A) (A) (A) (A) (A) (A) (A) (A) (A) (A)
                 (A) (A) (A) (A) (A) (A) (A) (A) (A) (A) (A) (A)
                 (A) (A) (A) (A) (A) (A) (A) (A) (A) (A) (A) (A)
                 (A) (A) (A) (A) (A) (A) (A) (A) (A) (A) (A) (A)
                 (A) (A) (A) (A) (A) (A) (A) (A) (A) (A) (A) (A)
                 (A) (A) (A) (A) (A) (A) (A) (A) (A) (A) (A) (A)
                 (A) (A) (A) (A) (A) (A) (A) (A) (A) (A) (A) (A)
                 (A) (A) (A) (A) (A) (A) (A) (A) (A) (A) (A) (A)
                 (A) (A) (A) (A) (A) (A) (A) (A) (A) (A) (A) (A)
                 (A) (A) (A) (A) (A) (A) (A) (A) (A) (A) (A) (A)
                 (A) (A) (A) (A) (A) (A) (A) (A) (A) (A) (A) (A)
                 (A) (A) (A) (A) (A) (A) (A) (A) (A) (A) (A) (A)
                 (A) (A) (A) (A) (A) (A) (A) (A) (A) (A) (A) (A)
                 (A) (A) (A) (A) (A) (A) (A) (A) (A) (A) (A) (A)
                 (A) (A) (A) (A) (A) (A) (A) (A) (A) (A) (A) (A)
                 (A) (A) (A) (A) (A) (A) (A) (A) (A) (A) (A) (A)
                 (A) (A) (A) (A) (A) (A) (A) (A) (A) (A) (A) (A)
                 (A) (A) (A) (A) (A) (A) (A) (A) (A) (A) (A) (A)
                 (A) (A) (A) (A) (A) (A) (A) (A) (A) (A) (A) (A)
                 (A) (A) (A) (A) (A) (A) (A) (A) (A) (A) (A) (A)
                 (A) (A) (A) (A) (A) (A) (A) (A) (A) (A) (A) (A)
                 (A) (A) (A) (A) (A) (A) (A) (A) (A) (A) (A) (A)
                 (A) (A) (A) (A) (A) (A) (A) (A) (A) (A) (A) (A)
                 (A) (A) (A) (A) (A) (A) (A) (A) (A) (A) (A) (A)
                 (A) (A) (A) (A) (A) (A) (A) (A) (A) (A) (A) (A)
                 (A) (A) (A) (A) (A) (A) (A) (A) (A) (A) (A) (A)
                 (A) (A) (A) (A) (A) (A) (A) (A) (A) (A) (A) (A)
                 (A) (A) (A) (A) (A) (A) (A) (A) (A) (A) (A) (A)
                 (A) (A) (A) (A) (A) (A) (A) (A) (A) (A) (A) (A)
                 (A) (A) (A) (A) (A) (A) (A) (A) (A) (A) (A) (A)
                 (A) (A) (A) (A) (A) (A) (A) (A) (A) (A) (A) (A)
                 (A) (A) (A) (A) (A) (A) (A) (A) (A) (A) (A) (A)
                 (A) (A) (A) (A) (A) (A) (A) (A) (A) (A) (A) (A)
                 (A) (A) (A) (A) (A) (A) (A) (A) (A) (A) (A) (A)
                 (A) (A) (A) (A) (A) (A) (A) (A) (A) (A) (A) (A)
                 (A) (A) (A) (A) (A) (A) (A) (A) (A) (A) (A) (A)
                 (A) (A) (A) (A) (A) (A) (A) (A) (A) (A) (A) (A)
                 (A) (A) (A) (A) (A) (A) (A) (A) (A) (A) (A) (A)
                 (A) (A) (A) (A) (A) (A) (A) (A) (A) (A) (A) (A)
                 (A) (A) (A) (A) (A) (A) (A) (A) (A) (A) (A) (A)
                 (A) (A) (A) (A) (A) (A) (A) (A) (A) (A) (A) (A)
                 (A) (A) (A) (A) (A) (A) (A) (A) (A) (A) (A) (A)
                 (A) (A) (A) (A) (A) (A) (A) (A) (A) (A) (A) (A)
                 (A) (A) (A) (A) (A) (A) (A) (A) (A) (A) (A) (A)
                 (A) (A) (A) (A) (A) (A) (A) (A) (A) (A) (A) (A)
                 (A) (A) (A) (A) (A) (A) (A) (A) (A) (A) (A) (A)
                 (A) (A) (A) (A) (A) (A) (A) (A) (A) (A) (A) (A)
                 (A) (A) (A) (A) (A) (A) (A) (A) (A) (A) (A) (A)
                 (A) (A) (A) (A) (A) (A) (A) (A) (A) (A) (A) (A)
                 (A) (A) (A) (A) (A) (A) (A) (A) (A) (A) (A) (A)
                 (A) (A) (A) (A) (A) (A) (A) (A) (A) (A) (A) (A)
                 (A) (A) (A) (A) (A) (A) (A) (A) (A) (A) (A) (A)
                 (A) (A) (A) (A) (A) (A) (A) (A) (A) (A) (A) (A)
                 (A) (A) (A) (A) (A) (A) (A) (A) (A) (A) (A) (A)
                 (A) (A) (A) (A) (A) (A) (A) (A) (A) (A) (A) (A)
                 (A) (A) (A) (A) (A) (A) (A) (A) (A) (A) (A) (A)
                 (A) (A) (A) (A) (A) (A) (A) (A) (A) (A) (A) (A)
                 (A) (A) (A) (A) (A) (A) (A) (A) (A) (A) (A) (A)
                 (A) (A) (A) (A) (A) (A) (A) (A) (A) (A) (A) (A)
                 (A) (A) (A) (A) (A) (A) (A) (A) (A) (A) (A) (A)
                 (A) (A) (A) (A) (A) (A) (A) (A) (A) (A) (A) (A)
                 (A) (A) (A) (A) (A) (A) (A) (A) (A) (A) (A) (A)
                 (A) (A) (A) (A) (A) (A) (A) (A) (A) (A) (A) (A)
                 (A) (A) (A) (A) (A) (A) (A) (A) (A) (A) (A) (A)
                 (A) (A) (A) (A) (A) (A) (A) (A) (A) (A) (A) (A)
                 (A) (A) (A) (A) (A) (A) (A) (A) (A) (A) (A) (A)
                 (A) (A) (A) (A) (A) (A) (A) (A) (A) (A) (A) (A)
                 (A) (A) (A) (A) (A) (A) (A) (A) (A) (A) (A) (A)
                 (A) (A) (A) (A) (A) (A) (A) (A) (A) (A) (A) (A)
                 (A) (A) (A) (A) (A) (A) (A) (A) (A) (A) (A) (A)
                 (A) (A) (A) (A) (A) (A) (A) (A) (A) (A) (A) (A)
                 (A) (A) (A) (A) (A) (A) (A) (A) (A) (A) (A) (A)
                 (A) (A) (A) (A) (A) (A) (A) (A) (A) (A) (A) (A)
                 (A) (A) (A) (A) (A) (A) (A) (A) (A) (A) (A) (A)
                 (A) (A) (A) (A) (A) (A) (A) (A) (A) (A) (A) (A)
                 (A) (A) (A) (A) (A) (A) (A) (A) (A) (A) (A) (A)
                 (A) (A) (A) (A) (A) (A) (A) (A) (A) (A) (A) (A)
                 (A) (A) (A) (A) (A) (A)
 Beta  Orbitals:
       Occupied  (A) (A) (A) (A) (A) (A) (A) (A) (A) (A) (A) (A)
                 (A) (A) (A) (A) (A) (A) (A) (A) (A) (A) (A) (A)
                 (A) (A) (A) (A) (A) (A) (A) (A) (A) (A) (A) (A)
                 (A) (A) (A) (A) (A) (A) (A) (A) (A) (A) (A) (A)
                 (A) (A) (A) (A) (A) (A) (A) (A) (A) (A) (A) (A)
                 (A) (A) (A) (A) (A) (A) (A) (A) (A) (A) (A) (A)
                 (A) (A) (A) (A) (A) (A) (A) (A) (A) (A) (A) (A)
                 (A) (A) (A) (A) (A) (A) (A) (A) (A) (A) (A) (A)
                 (A) (A) (A) (A)
       Virtual   (A) (A) (A) (A) (A) (A) (A) (A) (A) (A) (A) (A)
                 (A) (A) (A) (A) (A) (A) (A) (A) (A) (A) (A) (A)
                 (A) (A) (A) (A) (A) (A) (A) (A) (A) (A) (A) (A)
                 (A) (A) (A) (A) (A) (A) (A) (A) (A) (A) (A) (A)
                 (A) (A) (A) (A) (A) (A) (A) (A) (A) (A) (A) (A)
                 (A) (A) (A) (A) (A) (A) (A) (A) (A) (A) (A) (A)
                 (A) (A) (A) (A) (A) (A) (A) (A) (A) (A) (A) (A)
                 (A) (A) (A) (A) (A) (A) (A) (A) (A) (A) (A) (A)
                 (A) (A) (A) (A) (A) (A) (A) (A) (A) (A) (A) (A)
                 (A) (A) (A) (A) (A) (A) (A) (A) (A) (A) (A) (A)
                 (A) (A) (A) (A) (A) (A) (A) (A) (A) (A) (A) (A)
                 (A) (A) (A) (A) (A) (A) (A) (A) (A) (A) (A) (A)
                 (A) (A) (A) (A) (A) (A) (A) (A) (A) (A) (A) (A)
                 (A) (A) (A) (A) (A) (A) (A) (A) (A) (A) (A) (A)
                 (A) (A) (A) (A) (A) (A) (A) (A) (A) (A) (A) (A)
                 (A) (A) (A) (A) (A) (A) (A) (A) (A) (A) (A) (A)
                 (A) (A) (A) (A) (A) (A) (A) (A) (A) (A) (A) (A)
                 (A) (A) (A) (A) (A) (A) (A) (A) (A) (A) (A) (A)
                 (A) (A) (A) (A) (A) (A) (A) (A) (A) (A) (A) (A)
                 (A) (A) (A) (A) (A) (A) (A) (A) (A) (A) (A) (A)
                 (A) (A) (A) (A) (A) (A) (A) (A) (A) (A) (A) (A)
                 (A) (A) (A) (A) (A) (A) (A) (A) (A) (A) (A) (A)
                 (A) (A) (A) (A) (A) (A) (A) (A) (A) (A) (A) (A)
                 (A) (A) (A) (A) (A) (A) (A) (A) (A) (A) (A) (A)
                 (A) (A) (A) (A) (A) (A) (A) (A) (A) (A) (A) (A)
                 (A) (A) (A) (A) (A) (A) (A) (A) (A) (A) (A) (A)
                 (A) (A) (A) (A) (A) (A) (A) (A) (A) (A) (A) (A)
                 (A) (A) (A) (A) (A) (A) (A) (A) (A) (A) (A) (A)
                 (A) (A) (A) (A) (A) (A) (A) (A) (A) (A) (A) (A)
                 (A) (A) (A) (A) (A) (A) (A) (A) (A) (A) (A) (A)
                 (A) (A) (A) (A) (A) (A) (A) (A) (A) (A) (A) (A)
                 (A) (A) (A) (A) (A) (A) (A) (A) (A) (A) (A) (A)
                 (A) (A) (A) (A) (A) (A) (A) (A) (A) (A) (A) (A)
                 (A) (A) (A) (A) (A) (A) (A) (A) (A) (A) (A) (A)
                 (A) (A) (A) (A) (A) (A) (A) (A) (A) (A) (A) (A)
                 (A) (A) (A) (A) (A) (A) (A) (A) (A) (A) (A) (A)
                 (A) (A) (A) (A) (A) (A) (A) (A) (A) (A) (A) (A)
                 (A) (A) (A) (A) (A) (A) (A) (A) (A) (A) (A) (A)
                 (A) (A) (A) (A) (A) (A) (A) (A) (A) (A) (A) (A)
                 (A) (A) (A) (A) (A) (A) (A) (A) (A) (A) (A) (A)
                 (A) (A) (A) (A) (A) (A) (A) (A) (A) (A) (A) (A)
                 (A) (A) (A) (A) (A) (A) (A) (A) (A) (A) (A) (A)
                 (A) (A) (A) (A) (A) (A) (A) (A) (A) (A) (A) (A)
                 (A) (A) (A) (A) (A) (A) (A) (A) (A) (A) (A) (A)
                 (A) (A) (A) (A) (A) (A) (A) (A) (A) (A) (A) (A)
                 (A) (A) (A) (A) (A) (A) (A) (A) (A) (A) (A) (A)
                 (A) (A) (A) (A) (A) (A) (A) (A) (A) (A) (A) (A)
                 (A) (A) (A) (A) (A) (A) (A) (A) (A) (A) (A) (A)
                 (A) (A) (A) (A) (A) (A) (A) (A) (A) (A) (A) (A)
                 (A) (A) (A) (A) (A) (A) (A) (A) (A) (A) (A) (A)
                 (A) (A) (A) (A) (A) (A) (A) (A) (A) (A) (A) (A)
                 (A) (A) (A) (A) (A) (A) (A) (A) (A) (A) (A) (A)
                 (A) (A) (A) (A) (A) (A) (A) (A) (A) (A) (A) (A)
                 (A) (A) (A) (A) (A) (A) (A) (A) (A) (A) (A) (A)
                 (A) (A) (A) (A) (A) (A) (A) (A) (A) (A) (A) (A)
                 (A) (A) (A) (A) (A) (A) (A) (A) (A) (A) (A) (A)
                 (A) (A) (A) (A) (A) (A) (A) (A) (A) (A) (A) (A)
                 (A) (A) (A) (A) (A) (A) (A) (A) (A) (A) (A) (A)
                 (A) (A) (A) (A) (A) (A) (A) (A) (A) (A) (A) (A)
                 (A) (A) (A) (A) (A) (A) (A) (A) (A) (A) (A) (A)
                 (A) (A) (A) (A) (A) (A) (A) (A) (A) (A) (A) (A)
                 (A) (A) (A) (A) (A) (A) (A) (A) (A) (A) (A) (A)
                 (A) (A) (A) (A) (A) (A) (A) (A) (A) (A) (A) (A)
                 (A) (A) (A) (A) (A) (A) (A) (A) (A) (A) (A) (A)
                 (A) (A) (A) (A) (A) (A) (A) (A) (A) (A) (A) (A)
                 (A) (A) (A) (A) (A) (A) (A) (A) (A) (A) (A) (A)
                 (A) (A) (A) (A) (A) (A) (A) (A) (A) (A) (A) (A)
                 (A) (A) (A) (A) (A) (A) (A) (A) (A) (A) (A) (A)
                 (A) (A) (A) (A) (A) (A) (A) (A) (A) (A) (A) (A)
                 (A) (A) (A) (A) (A) (A) (A) (A) (A) (A) (A) (A)
                 (A) (A) (A) (A) (A) (A) (A) (A) (A) (A) (A) (A)
                 (A) (A) (A) (A) (A) (A) (A) (A) (A) (A) (A) (A)
                 (A) (A) (A) (A) (A) (A) (A) (A) (A) (A) (A) (A)
                 (A) (A) (A) (A) (A) (A) (A) (A) (A) (A) (A) (A)
                 (A) (A) (A) (A) (A) (A) (A) (A) (A) (A) (A) (A)
                 (A) (A) (A) (A) (A) (A) (A) (A) (A) (A) (A) (A)
                 (A) (A) (A) (A) (A) (A) (A) (A) (A) (A) (A) (A)
                 (A) (A) (A) (A) (A) (A) (A) (A) (A) (A) (A) (A)
                 (A) (A) (A) (A) (A) (A) (A) (A) (A) (A) (A) (A)
                 (A) (A) (A) (A) (A) (A) (A) (A) (A) (A) (A) (A)
                 (A) (A) (A) (A) (A) (A) (A) (A) (A) (A) (A) (A)
                 (A) (A) (A) (A) (A) (A) (A) (A) (A) (A) (A) (A)
                 (A) (A) (A) (A) (A) (A) (A) (A) (A) (A) (A) (A)
                 (A) (A) (A) (A) (A) (A) (A) (A) (A) (A) (A) (A)
                 (A) (A) (A) (A) (A) (A) (A) (A) (A) (A) (A) (A)
                 (A) (A) (A) (A) (A) (A) (A) (A) (A) (A) (A) (A)
                 (A) (A) (A) (A) (A) (A) (A) (A) (A) (A) (A) (A)
                 (A) (A) (A) (A) (A) (A) (A) (A) (A) (A) (A) (A)
                 (A) (A) (A) (A) (A) (A) (A) (A) (A) (A) (A) (A)
                 (A) (A) (A) (A) (A) (A) (A) (A) (A) (A) (A) (A)
                 (A) (A) (A) (A) (A) (A) (A) (A) (A) (A) (A) (A)
                 (A) (A) (A) (A) (A) (A) (A) (A) (A) (A) (A) (A)
                 (A) (A) (A) (A) (A) (A) (A) (A) (A) (A) (A) (A)
                 (A) (A) (A) (A) (A) (A) (A) (A) (A) (A) (A) (A)
                 (A) (A) (A) (A) (A) (A) (A) (A) (A) (A) (A) (A)
                 (A) (A) (A) (A) (A) (A) (A) (A) (A) (A) (A) (A)
                 (A) (A) (A) (A) (A) (A) (A) (A) (A) (A) (A) (A)
                 (A) (A) (A) (A) (A) (A) (A) (A) (A) (A) (A) (A)
                 (A) (A) (A) (A) (A) (A) (A) (A) (A) (A) (A) (A)
                 (A) (A) (A) (A) (A) (A) (A) (A) (A) (A) (A) (A)
                 (A) (A) (A) (A) (A) (A) (A) (A) (A) (A) (A) (A)
                 (A) (A) (A) (A) (A) (A) (A) (A) (A) (A) (A) (A)
                 (A) (A) (A) (A) (A) (A) (A) (A) (A) (A) (A) (A)
                 (A) (A) (A) (A) (A) (A) (A) (A) (A) (A) (A) (A)
                 (A) (A) (A) (A) (A) (A) (A) (A) (A) (A) (A) (A)
                 (A) (A) (A) (A) (A) (A) (A) (A) (A) (A) (A) (A)
                 (A) (A) (A) (A) (A) (A) (A) (A) (A) (A) (A) (A)
                 (A) (A) (A) (A) (A) (A) (A) (A) (A) (A) (A) (A)
                 (A) (A) (A) (A) (A) (A) (A) (A) (A) (A) (A) (A)
                 (A) (A) (A) (A) (A) (A) (A) (A) (A) (A) (A) (A)
                 (A) (A) (A) (A) (A) (A) (A) (A) (A) (A) (A) (A)
                 (A) (A) (A) (A) (A) (A) (A) (A) (A) (A) (A) (A)
                 (A) (A) (A) (A) (A) (A) (A) (A) (A) (A) (A) (A)
                 (A) (A) (A) (A) (A) (A) (A) (A) (A) (A) (A) (A)
                 (A) (A) (A) (A) (A) (A) (A) (A) (A) (A) (A) (A)
                 (A) (A) (A) (A) (A) (A) (A) (A) (A) (A) (A) (A)
                 (A) (A) (A) (A) (A) (A) (A) (A) (A) (A) (A) (A)
                 (A) (A) (A) (A) (A) (A) (A) (A) (A) (A) (A) (A)
                 (A) (A) (A) (A) (A) (A) (A) (A) (A) (A) (A) (A)
                 (A) (A) (A) (A) (A) (A) (A) (A) (A) (A) (A) (A)
                 (A) (A) (A) (A) (A) (A) (A) (A) (A) (A) (A) (A)
                 (A) (A) (A) (A) (A) (A) (A) (A) (A) (A) (A) (A)
                 (A) (A) (A) (A) (A) (A) (A) (A) (A) (A) (A) (A)
                 (A) (A) (A) (A) (A) (A) (A) (A) (A) (A) (A) (A)
                 (A) (A) (A) (A) (A) (A) (A) (A) (A) (A) (A) (A)
                 (A) (A) (A) (A) (A) (A) (A) (A) (A) (A) (A) (A)
                 (A) (A) (A) (A) (A) (A) (A) (A) (A) (A) (A) (A)
                 (A) (A) (A) (A) (A) (A) (A) (A) (A) (A) (A) (A)
                 (A) (A) (A) (A) (A) (A) (A) (A) (A) (A) (A) (A)
                 (A) (A) (A) (A) (A) (A) (A) (A) (A) (A) (A) (A)
                 (A) (A) (A) (A) (A) (A) (A) (A) (A) (A) (A) (A)
                 (A) (A) (A) (A) (A) (A) (A) (A) (A) (A) (A) (A)
                 (A) (A) (A) (A) (A) (A) (A) (A) (A) (A) (A) (A)
                 (A) (A) (A) (A) (A) (A) (A) (A) (A) (A) (A) (A)
                 (A) (A) (A) (A) (A) (A) (A) (A) (A) (A) (A) (A)
                 (A) (A) (A) (A) (A) (A) (A) (A) (A) (A) (A) (A)
                 (A) (A) (A) (A) (A) (A) (A) (A) (A) (A) (A) (A)
                 (A) (A) (A) (A) (A) (A) (A) (A) (A) (A) (A) (A)
                 (A) (A) (A) (A) (A) (A) (A) (A) (A) (A) (A) (A)
                 (A) (A) (A) (A) (A) (A) (A) (A) (A) (A) (A) (A)
                 (A) (A) (A) (A) (A) (A) (A) (A) (A) (A) (A) (A)
                 (A) (A) (A) (A) (A) (A) (A) (A) (A) (A) (A) (A)
                 (A) (A) (A) (A) (A) (A) (A) (A) (A) (A) (A) (A)
                 (A) (A) (A) (A) (A) (A) (A) (A) (A) (A) (A) (A)
                 (A) (A) (A) (A) (A) (A) (A) (A) (A) (A) (A) (A)
                 (A) (A) (A) (A) (A) (A) (A) (A) (A) (A) (A) (A)
                 (A) (A) (A) (A) (A) (A) (A) (A) (A) (A) (A) (A)
                 (A) (A) (A) (A) (A) (A) (A) (A) (A) (A) (A) (A)
                 (A) (A) (A) (A) (A) (A) (A) (A) (A) (A) (A) (A)
                 (A) (A) (A) (A) (A) (A) (A) (A) (A) (A) (A) (A)
                 (A) (A) (A) (A) (A) (A) (A) (A) (A) (A) (A) (A)
                 (A) (A) (A) (A) (A) (A) (A) (A) (A) (A) (A) (A)
                 (A) (A) (A) (A) (A) (A) (A) (A) (A) (A) (A) (A)
                 (A) (A) (A) (A) (A) (A) (A) (A) (A) (A) (A) (A)
                 (A) (A) (A) (A) (A) (A) (A) (A) (A) (A) (A) (A)
                 (A) (A) (A) (A) (A) (A) (A) (A) (A) (A) (A) (A)
                 (A) (A) (A) (A) (A) (A) (A) (A) (A) (A) (A) (A)
                 (A) (A) (A) (A) (A) (A) (A) (A) (A) (A) (A) (A)
                 (A) (A) (A) (A) (A) (A) (A) (A) (A) (A) (A) (A)
                 (A) (A) (A) (A) (A) (A) (A) (A) (A) (A) (A) (A)
                 (A) (A) (A) (A) (A) (A) (A) (A) (A) (A) (A) (A)
                 (A) (A) (A) (A) (A) (A) (A) (A) (A) (A) (A) (A)
                 (A) (A) (A) (A) (A) (A) (A) (A) (A) (A) (A) (A)
                 (A) (A) (A) (A) (A) (A) (A) (A) (A) (A) (A) (A)
                 (A) (A) (A) (A) (A) (A) (A) (A) (A) (A) (A) (A)
                 (A) (A) (A) (A) (A) (A) (A) (A) (A) (A) (A) (A)
                 (A) (A) (A) (A) (A) (A) (A) (A) (A) (A) (A) (A)
                 (A) (A) (A) (A) (A) (A) (A) (A) (A) (A) (A) (A)
                 (A) (A) (A) (A) (A) (A) (A) (A) (A) (A) (A) (A)
                 (A) (A) (A) (A) (A) (A) (A) (A) (A) (A) (A) (A)
                 (A) (A) (A) (A) (A) (A) (A) (A) (A) (A) (A) (A)
                 (A) (A) (A) (A) (A) (A) (A) (A) (A) (A) (A) (A)
                 (A) (A) (A) (A) (A) (A) (A) (A) (A) (A) (A) (A)
                 (A) (A) (A) (A) (A) (A) (A) (A) (A) (A) (A) (A)
                 (A) (A) (A) (A) (A) (A) (A) (A) (A) (A) (A) (A)
                 (A) (A) (A) (A) (A) (A) (A) (A) (A) (A) (A) (A)
                 (A) (A) (A) (A) (A) (A) (A) (A) (A) (A) (A) (A)
                 (A) (A) (A) (A) (A) (A) (A) (A) (A) (A) (A) (A)
                 (A) (A) (A) (A) (A) (A) (A) (A) (A) (A) (A) (A)
                 (A) (A) (A) (A) (A) (A) (A) (A) (A) (A) (A) (A)
                 (A) (A) (A) (A) (A) (A) (A) (A) (A) (A) (A) (A)
                 (A) (A) (A) (A) (A) (A) (A) (A) (A) (A) (A) (A)
                 (A) (A) (A) (A) (A) (A) (A) (A) (A) (A) (A) (A)
                 (A) (A) (A) (A) (A) (A) (A) (A) (A) (A) (A) (A)
                 (A) (A) (A) (A) (A) (A) (A) (A) (A) (A) (A) (A)
                 (A) (A) (A) (A) (A) (A) (A) (A) (A) (A) (A) (A)
                 (A) (A) (A) (A) (A) (A) (A) (A) (A) (A) (A) (A)
                 (A) (A) (A) (A) (A) (A) (A) (A) (A) (A) (A) (A)
                 (A) (A) (A) (A) (A) (A) (A) (A) (A) (A) (A) (A)
                 (A) (A) (A) (A) (A) (A) (A) (A) (A) (A) (A) (A)
                 (A) (A) (A) (A) (A) (A) (A) (A) (A) (A) (A) (A)
                 (A) (A) (A) (A) (A) (A) (A) (A) (A) (A) (A) (A)
                 (A) (A) (A) (A) (A) (A) (A) (A) (A) (A) (A) (A)
                 (A) (A) (A) (A) (A) (A) (A) (A) (A) (A) (A) (A)
                 (A) (A) (A) (A) (A) (A) (A) (A) (A) (A) (A) (A)
                 (A) (A) (A) (A) (A) (A) (A) (A) (A) (A) (A) (A)
                 (A) (A) (A) (A) (A) (A) (A) (A) (A) (A) (A) (A)
                 (A) (A) (A) (A) (A) (A) (A) (A) (A) (A) (A) (A)
                 (A) (A) (A) (A) (A) (A) (A) (A) (A) (A) (A) (A)
                 (A) (A) (A) (A) (A) (A) (A) (A) (A) (A) (A) (A)
                 (A) (A) (A) (A) (A) (A) (A) (A) (A) (A) (A) (A)
                 (A) (A) (A) (A) (A) (A) (A) (A) (A) (A) (A) (A)
                 (A) (A) (A) (A) (A) (A) (A) (A) (A) (A) (A) (A)
                 (A) (A) (A) (A) (A) (A) (A) (A) (A) (A) (A) (A)
                 (A) (A) (A) (A) (A) (A) (A) (A) (A) (A) (A) (A)
                 (A) (A) (A) (A) (A) (A) (A) (A) (A) (A) (A) (A)
                 (A) (A) (A) (A) (A) (A) (A) (A) (A) (A) (A) (A)
                 (A) (A) (A) (A) (A) (A) (A) (A) (A) (A) (A) (A)
                 (A) (A) (A) (A) (A) (A) (A) (A) (A) (A) (A) (A)
                 (A) (A) (A) (A) (A) (A) (A) (A) (A) (A) (A) (A)
                 (A) (A) (A) (A) (A) (A) (A) (A) (A) (A) (A) (A)
                 (A) (A) (A) (A) (A) (A)
 The electronic state is 1-A.
 Alpha  occ. eigenvalues --  -19.65690 -19.64638 -19.64581 -19.64247 -19.64154
 Alpha  occ. eigenvalues --  -19.64101 -19.62752 -19.62426 -19.62264 -19.62247
 Alpha  occ. eigenvalues --  -19.62203 -19.62011 -19.61834 -19.61727 -19.61551
 Alpha  occ. eigenvalues --  -19.61352 -19.61323 -19.61181 -19.61165 -19.60301
 Alpha  occ. eigenvalues --   -1.17791  -1.17088  -1.16835  -1.16563  -1.16457
 Alpha  occ. eigenvalues --   -1.16157  -1.16050  -1.15039  -1.14944  -1.14695
 Alpha  occ. eigenvalues --   -1.14068  -1.13801  -1.13527  -1.13256  -1.12853
 Alpha  occ. eigenvalues --   -1.12624  -1.12507  -1.12297  -1.12121  -1.11310
 Alpha  occ. eigenvalues --   -0.65548  -0.64667  -0.64282  -0.64168  -0.64027
 Alpha  occ. eigenvalues --   -0.63730  -0.63334  -0.63130  -0.62901  -0.62885
 Alpha  occ. eigenvalues --   -0.62418  -0.62150  -0.61980  -0.61634  -0.61313
 Alpha  occ. eigenvalues --   -0.60801  -0.60478  -0.60335  -0.59875  -0.59692
 Alpha  occ. eigenvalues --   -0.55549  -0.54756  -0.54409  -0.52822  -0.51835
 Alpha  occ. eigenvalues --   -0.51582  -0.51062  -0.50654  -0.49963  -0.49450
 Alpha  occ. eigenvalues --   -0.49100  -0.48563  -0.48282  -0.47680  -0.47309
 Alpha  occ. eigenvalues --   -0.47071  -0.46331  -0.45687  -0.45312  -0.44005
 Alpha  occ. eigenvalues --   -0.43655  -0.42880  -0.42659  -0.42542  -0.42341
 Alpha  occ. eigenvalues --   -0.42138  -0.41957  -0.41244  -0.41092  -0.40939
 Alpha  occ. eigenvalues --   -0.40816  -0.40541  -0.40385  -0.40299  -0.40118
 Alpha  occ. eigenvalues --   -0.39978  -0.39842  -0.39581  -0.39525  -0.38389
 Alpha virt. eigenvalues --   -0.01503  -0.00525  -0.00076   0.00440   0.00636
 Alpha virt. eigenvalues --    0.00951   0.02593   0.02936   0.02980   0.03493
 Alpha virt. eigenvalues --    0.03926   0.04134   0.04503   0.04964   0.05300
 Alpha virt. eigenvalues --    0.05415   0.05691   0.06085   0.06364   0.06495
 Alpha virt. eigenvalues --    0.06891   0.07474   0.07545   0.07871   0.08073
 Alpha virt. eigenvalues --    0.08293   0.08731   0.08893   0.09260   0.09275
 Alpha virt. eigenvalues --    0.09554   0.09828   0.10122   0.10974   0.11045
 Alpha virt. eigenvalues --    0.11204   0.11315   0.11517   0.11553   0.12042
 Alpha virt. eigenvalues --    0.12256   0.12293   0.12733   0.12835   0.13028
 Alpha virt. eigenvalues --    0.13206   0.13423   0.13641   0.13884   0.14256
 Alpha virt. eigenvalues --    0.14435   0.14501   0.15028   0.15317   0.15498
 Alpha virt. eigenvalues --    0.15733   0.16040   0.16140   0.16309   0.16687
 Alpha virt. eigenvalues --    0.16827   0.17248   0.17390   0.17626   0.17660
 Alpha virt. eigenvalues --    0.18190   0.18338   0.18631   0.18691   0.19124
 Alpha virt. eigenvalues --    0.19359   0.19495   0.19546   0.20024   0.20040
 Alpha virt. eigenvalues --    0.20218   0.20545   0.20880   0.21055   0.21230
 Alpha virt. eigenvalues --    0.21551   0.21852   0.22071   0.22145   0.22404
 Alpha virt. eigenvalues --    0.22579   0.22784   0.22863   0.23051   0.23220
 Alpha virt. eigenvalues --    0.23356   0.23716   0.23740   0.24030   0.24196
 Alpha virt. eigenvalues --    0.24346   0.24523   0.24688   0.24844   0.25079
 Alpha virt. eigenvalues --    0.25330   0.25355   0.25552   0.25839   0.25902
 Alpha virt. eigenvalues --    0.26005   0.26296   0.26496   0.26698   0.26820
 Alpha virt. eigenvalues --    0.27174   0.27352   0.27576   0.27786   0.27880
 Alpha virt. eigenvalues --    0.28083   0.28211   0.28330   0.28510   0.28772
 Alpha virt. eigenvalues --    0.28788   0.28970   0.29290   0.29485   0.29702
 Alpha virt. eigenvalues --    0.29802   0.29938   0.30039   0.30215   0.30477
 Alpha virt. eigenvalues --    0.30535   0.30602   0.30841   0.30968   0.31182
 Alpha virt. eigenvalues --    0.31519   0.31796   0.31866   0.31884   0.32020
 Alpha virt. eigenvalues --    0.32163   0.32431   0.32524   0.32742   0.32759
 Alpha virt. eigenvalues --    0.32995   0.33117   0.33301   0.33766   0.33879
 Alpha virt. eigenvalues --    0.33928   0.34083   0.34184   0.34425   0.34723
 Alpha virt. eigenvalues --    0.34778   0.35110   0.35354   0.35403   0.35656
 Alpha virt. eigenvalues --    0.35932   0.36174   0.36258   0.36289   0.36466
 Alpha virt. eigenvalues --    0.36798   0.36906   0.37266   0.37349   0.37657
 Alpha virt. eigenvalues --    0.37808   0.37988   0.38285   0.38418   0.38577
 Alpha virt. eigenvalues --    0.38753   0.38924   0.39095   0.39136   0.39497
 Alpha virt. eigenvalues --    0.39773   0.39988   0.40269   0.40421   0.40597
 Alpha virt. eigenvalues --    0.40911   0.41148   0.41197   0.41450   0.41606
 Alpha virt. eigenvalues --    0.42016   0.42225   0.42457   0.42651   0.42769
 Alpha virt. eigenvalues --    0.43134   0.43173   0.43234   0.43485   0.43788
 Alpha virt. eigenvalues --    0.44002   0.44193   0.44456   0.44859   0.45050
 Alpha virt. eigenvalues --    0.45375   0.45536   0.45735   0.45837   0.46180
 Alpha virt. eigenvalues --    0.46696   0.46954   0.47015   0.47476   0.47705
 Alpha virt. eigenvalues --    0.47990   0.48190   0.48423   0.48540   0.48596
 Alpha virt. eigenvalues --    0.48891   0.49095   0.49175   0.49343   0.49568
 Alpha virt. eigenvalues --    0.50013   0.50202   0.50356   0.50407   0.50705
 Alpha virt. eigenvalues --    0.50779   0.51109   0.51240   0.51351   0.51613
 Alpha virt. eigenvalues --    0.51938   0.52224   0.52404   0.52672   0.53092
 Alpha virt. eigenvalues --    0.53273   0.53460   0.53601   0.53825   0.53934
 Alpha virt. eigenvalues --    0.54165   0.54524   0.54877   0.54903   0.55165
 Alpha virt. eigenvalues --    0.55398   0.55551   0.55680   0.55981   0.56314
 Alpha virt. eigenvalues --    0.56483   0.56702   0.56781   0.57124   0.57164
 Alpha virt. eigenvalues --    0.57443   0.57680   0.57791   0.57894   0.58256
 Alpha virt. eigenvalues --    0.58531   0.58769   0.58971   0.58985   0.59325
 Alpha virt. eigenvalues --    0.59411   0.59669   0.59782   0.60146   0.60246
 Alpha virt. eigenvalues --    0.60650   0.60704   0.60839   0.61052   0.61406
 Alpha virt. eigenvalues --    0.61650   0.61711   0.61868   0.62090   0.62359
 Alpha virt. eigenvalues --    0.62608   0.62652   0.63075   0.63101   0.63218
 Alpha virt. eigenvalues --    0.63780   0.63891   0.64161   0.64507   0.64747
 Alpha virt. eigenvalues --    0.64806   0.64965   0.65240   0.65405   0.65490
 Alpha virt. eigenvalues --    0.65756   0.65942   0.66159   0.66347   0.66555
 Alpha virt. eigenvalues --    0.66889   0.67073   0.67520   0.67641   0.67989
 Alpha virt. eigenvalues --    0.68187   0.68351   0.68472   0.68659   0.68726
 Alpha virt. eigenvalues --    0.69110   0.69506   0.69856   0.69993   0.70132
 Alpha virt. eigenvalues --    0.70425   0.70845   0.71017   0.71170   0.71437
 Alpha virt. eigenvalues --    0.71685   0.71936   0.72087   0.72363   0.72683
 Alpha virt. eigenvalues --    0.72867   0.73186   0.73405   0.73707   0.74034
 Alpha virt. eigenvalues --    0.74226   0.74626   0.74941   0.75007   0.75243
 Alpha virt. eigenvalues --    0.75360   0.75419   0.75744   0.75864   0.76161
 Alpha virt. eigenvalues --    0.76920   0.77033   0.77171   0.77423   0.77629
 Alpha virt. eigenvalues --    0.77907   0.78421   0.78724   0.78782   0.79001
 Alpha virt. eigenvalues --    0.79346   0.79766   0.79932   0.80352   0.80703
 Alpha virt. eigenvalues --    0.80898   0.81241   0.81492   0.81845   0.82069
 Alpha virt. eigenvalues --    0.82490   0.82527   0.82848   0.83124   0.83522
 Alpha virt. eigenvalues --    0.83746   0.83942   0.84112   0.84908   0.85109
 Alpha virt. eigenvalues --    0.85205   0.85589   0.85746   0.85963   0.86070
 Alpha virt. eigenvalues --    0.86599   0.86816   0.87304   0.87618   0.87682
 Alpha virt. eigenvalues --    0.87958   0.88123   0.88396   0.88527   0.88945
 Alpha virt. eigenvalues --    0.89066   0.89438   0.90046   0.90247   0.90595
 Alpha virt. eigenvalues --    0.90904   0.91029   0.91229   0.91461   0.91559
 Alpha virt. eigenvalues --    0.92017   0.92222   0.92446   0.92747   0.93400
 Alpha virt. eigenvalues --    0.93601   0.93815   0.94041   0.94818   0.94961
 Alpha virt. eigenvalues --    0.95428   0.95777   0.96021   0.96210   0.96725
 Alpha virt. eigenvalues --    0.97177   0.97182   0.97498   0.98229   0.98537
 Alpha virt. eigenvalues --    0.98840   0.99144   0.99324   0.99859   1.00109
 Alpha virt. eigenvalues --    1.00911   1.01119   1.01446   1.01751   1.01960
 Alpha virt. eigenvalues --    1.02326   1.02717   1.03053   1.03819   1.04057
 Alpha virt. eigenvalues --    1.04415   1.04754   1.05211   1.05350   1.05740
 Alpha virt. eigenvalues --    1.06116   1.06659   1.06762   1.07215   1.07714
 Alpha virt. eigenvalues --    1.07879   1.08013   1.08474   1.09000   1.09331
 Alpha virt. eigenvalues --    1.09716   1.09798   1.10080   1.10595   1.10893
 Alpha virt. eigenvalues --    1.11394   1.11614   1.11723   1.11937   1.12404
 Alpha virt. eigenvalues --    1.12539   1.12649   1.13022   1.13512   1.13655
 Alpha virt. eigenvalues --    1.14140   1.14765   1.15127   1.15248   1.15340
 Alpha virt. eigenvalues --    1.15631   1.15903   1.16322   1.16458   1.16584
 Alpha virt. eigenvalues --    1.17272   1.17378   1.17673   1.18024   1.18327
 Alpha virt. eigenvalues --    1.18626   1.18963   1.19007   1.19249   1.19596
 Alpha virt. eigenvalues --    1.20189   1.20371   1.20579   1.20885   1.21312
 Alpha virt. eigenvalues --    1.21764   1.22030   1.22168   1.22458   1.22675
 Alpha virt. eigenvalues --    1.22797   1.23109   1.23428   1.23653   1.24252
 Alpha virt. eigenvalues --    1.24585   1.24649   1.24934   1.25089   1.25537
 Alpha virt. eigenvalues --    1.25685   1.25898   1.26234   1.26384   1.26762
 Alpha virt. eigenvalues --    1.26960   1.27201   1.27608   1.27782   1.28168
 Alpha virt. eigenvalues --    1.28350   1.28754   1.28888   1.29267   1.29453
 Alpha virt. eigenvalues --    1.29532   1.29908   1.30338   1.30435   1.30944
 Alpha virt. eigenvalues --    1.31205   1.31554   1.31843   1.32121   1.32201
 Alpha virt. eigenvalues --    1.32852   1.33241   1.33392   1.33753   1.34043
 Alpha virt. eigenvalues --    1.34624   1.34760   1.35281   1.35591   1.35993
 Alpha virt. eigenvalues --    1.36116   1.36323   1.36878   1.37276   1.37533
 Alpha virt. eigenvalues --    1.37865   1.38589   1.38741   1.39125   1.39424
 Alpha virt. eigenvalues --    1.40086   1.40340   1.41078   1.41525   1.41917
 Alpha virt. eigenvalues --    1.42302   1.42704   1.43039   1.43673   1.44554
 Alpha virt. eigenvalues --    1.45021   1.45682   1.45945   1.46645   1.47336
 Alpha virt. eigenvalues --    1.47533   1.47906   1.48558   1.48914   1.49309
 Alpha virt. eigenvalues --    1.49541   1.49782   1.50409   1.50756   1.51373
 Alpha virt. eigenvalues --    1.51470   1.51685   1.52122   1.52713   1.53083
 Alpha virt. eigenvalues --    1.53443   1.54132   1.54510   1.55036   1.55559
 Alpha virt. eigenvalues --    1.55837   1.56038   1.56115   1.56785   1.56807
 Alpha virt. eigenvalues --    1.57455   1.58305   1.58451   1.58459   1.59206
 Alpha virt. eigenvalues --    1.59469   1.59839   1.60268   1.60630   1.61044
 Alpha virt. eigenvalues --    1.61505   1.61923   1.62117   1.62326   1.62908
 Alpha virt. eigenvalues --    1.63284   1.63472   1.63852   1.64247   1.64433
 Alpha virt. eigenvalues --    1.64746   1.64901   1.65464   1.65773   1.66374
 Alpha virt. eigenvalues --    1.66576   1.67007   1.67524   1.67654   1.68189
 Alpha virt. eigenvalues --    1.68422   1.68767   1.69199   1.69272   1.69706
 Alpha virt. eigenvalues --    1.70301   1.70607   1.70889   1.71461   1.71539
 Alpha virt. eigenvalues --    1.71969   1.72573   1.72721   1.73205   1.73505
 Alpha virt. eigenvalues --    1.73654   1.74265   1.74622   1.75228   1.75701
 Alpha virt. eigenvalues --    1.75899   1.76082   1.76792   1.77209   1.77255
 Alpha virt. eigenvalues --    1.77724   1.77738   1.78251   1.78816   1.79057
 Alpha virt. eigenvalues --    1.79381   1.79612   1.79923   1.80228   1.80300
 Alpha virt. eigenvalues --    1.80695   1.81082   1.81411   1.81692   1.82043
 Alpha virt. eigenvalues --    1.82202   1.82280   1.82771   1.82990   1.83313
 Alpha virt. eigenvalues --    1.83346   1.83455   1.83837   1.84171   1.84457
 Alpha virt. eigenvalues --    1.84854   1.85296   1.85678   1.86224   1.86359
 Alpha virt. eigenvalues --    1.87254   1.87409   1.87671   1.87926   1.88277
 Alpha virt. eigenvalues --    1.88417   1.89048   1.89410   1.89783   1.90268
 Alpha virt. eigenvalues --    1.90860   1.91151   1.91379   1.91838   1.92013
 Alpha virt. eigenvalues --    1.92279   1.92763   1.93255   1.94006   1.94497
 Alpha virt. eigenvalues --    1.94958   1.95220   1.95890   1.96794   1.97087
 Alpha virt. eigenvalues --    1.97276   1.98572   1.98945   1.99329   2.00345
 Alpha virt. eigenvalues --    2.01016   2.01577   2.01945   2.02313   2.02535
 Alpha virt. eigenvalues --    2.03092   2.03677   2.04166   2.04798   2.05198
 Alpha virt. eigenvalues --    2.05314   2.06477   2.06852   2.07357   2.07638
 Alpha virt. eigenvalues --    2.08777   2.08993   2.09361   2.09923   2.10555
 Alpha virt. eigenvalues --    2.10678   2.10733   2.10934   2.11352   2.12842
 Alpha virt. eigenvalues --    2.13077   2.13283   2.13860   2.14225   2.14868
 Alpha virt. eigenvalues --    2.15023   2.15454   2.15685   2.16126   2.16495
 Alpha virt. eigenvalues --    2.17337   2.17974   2.18299   2.18680   2.18926
 Alpha virt. eigenvalues --    2.19207   2.19854   2.19966   2.20485   2.20623
 Alpha virt. eigenvalues --    2.21146   2.21776   2.22071   2.22393   2.22638
 Alpha virt. eigenvalues --    2.23242   2.23498   2.23793   2.24197   2.24778
 Alpha virt. eigenvalues --    2.25262   2.25596   2.25894   2.26150   2.26596
 Alpha virt. eigenvalues --    2.26866   2.27000   2.27673   2.28489   2.29070
 Alpha virt. eigenvalues --    2.29328   2.29699   2.29834   2.30029   2.30548
 Alpha virt. eigenvalues --    2.30694   2.31275   2.31708   2.31888   2.32198
 Alpha virt. eigenvalues --    2.32649   2.33322   2.33626   2.33828   2.34354
 Alpha virt. eigenvalues --    2.34707   2.35327   2.35895   2.35979   2.36464
 Alpha virt. eigenvalues --    2.36774   2.36928   2.37561   2.37790   2.38421
 Alpha virt. eigenvalues --    2.38693   2.38966   2.39340   2.39803   2.40432
 Alpha virt. eigenvalues --    2.40917   2.40975   2.42023   2.42154   2.42420
 Alpha virt. eigenvalues --    2.42719   2.43433   2.43663   2.44061   2.44154
 Alpha virt. eigenvalues --    2.44371   2.44859   2.45137   2.45640   2.46272
 Alpha virt. eigenvalues --    2.46405   2.46812   2.47341   2.47541   2.48007
 Alpha virt. eigenvalues --    2.48212   2.48229   2.48836   2.49282   2.50145
 Alpha virt. eigenvalues --    2.50348   2.50966   2.51635   2.51849   2.52180
 Alpha virt. eigenvalues --    2.52648   2.52899   2.53111   2.53705   2.54125
 Alpha virt. eigenvalues --    2.54312   2.54556   2.55331   2.55990   2.56581
 Alpha virt. eigenvalues --    2.56892   2.57130   2.57307   2.57805   2.58253
 Alpha virt. eigenvalues --    2.58479   2.59261   2.59510   2.59727   2.59939
 Alpha virt. eigenvalues --    2.60476   2.60943   2.61563   2.61754   2.62123
 Alpha virt. eigenvalues --    2.62486   2.63225   2.63329   2.64095   2.64189
 Alpha virt. eigenvalues --    2.64587   2.65324   2.65733   2.65923   2.66314
 Alpha virt. eigenvalues --    2.66336   2.66925   2.67388   2.67637   2.68229
 Alpha virt. eigenvalues --    2.68680   2.69071   2.69617   2.70379   2.70555
 Alpha virt. eigenvalues --    2.70697   2.71359   2.71850   2.72918   2.73098
 Alpha virt. eigenvalues --    2.73599   2.74088   2.74483   2.74595   2.75366
 Alpha virt. eigenvalues --    2.75606   2.75974   2.76471   2.76624   2.77104
 Alpha virt. eigenvalues --    2.77307   2.77726   2.78063   2.78295   2.78784
 Alpha virt. eigenvalues --    2.79004   2.79367   2.79541   2.79966   2.80024
 Alpha virt. eigenvalues --    2.80677   2.80924   2.81502   2.81531   2.81849
 Alpha virt. eigenvalues --    2.82124   2.82415   2.82604   2.83220   2.83425
 Alpha virt. eigenvalues --    2.83874   2.84372   2.84613   2.84817   2.85083
 Alpha virt. eigenvalues --    2.85301   2.85762   2.86719   2.86938   2.87362
 Alpha virt. eigenvalues --    2.87707   2.88189   2.88335   2.88786   2.89050
 Alpha virt. eigenvalues --    2.89790   2.90299   2.90617   2.90672   2.91607
 Alpha virt. eigenvalues --    2.91840   2.91855   2.92232   2.92556   2.93153
 Alpha virt. eigenvalues --    2.93254   2.93397   2.93958   2.94023   2.94458
 Alpha virt. eigenvalues --    2.94819   2.95272   2.95318   2.95889   2.96153
[...]
    39   Atom        0.000306      0.000147     -0.000074
    40   Atom        0.001678     -0.001426     -0.002813
    41   Atom       -0.000210     -0.000006      0.000139
    42   Atom        0.000044      0.000008      0.000070
    43   Atom        0.000061     -0.000001     -0.000019
    44   Atom        0.000003      0.000003     -0.000004
    45   Atom        0.000043     -0.000004     -0.000014
    46   Atom        0.008564     -0.006924     -0.006753
    47   Atom       -0.000144      0.000380      0.000435
    48   Atom       -0.000605      0.000066      0.000309
    49   Atom       -0.000024      0.000002     -0.000007
    50   Atom        0.000007      0.000003     -0.000002
    51   Atom        0.000001     -0.000002      0.000000
    52   Atom        0.001734      0.001008      0.004151
    53   Atom       -0.000021     -0.000072     -0.000273
    54   Atom       -0.000214     -0.000152     -0.000353
    55   Atom       -0.004480      0.009123     -0.007214
    56   Atom        0.000147     -0.000242      0.000397
    57   Atom        0.000549     -0.000445      0.000204
    58   Atom       -0.000000      0.000001     -0.000001
    59   Atom        0.000001      0.000001      0.000001
    60   Atom       -0.000003      0.000000     -0.000003
 --------------------------------------------------------


 ---------------------------------------------------------------------------------
              Anisotropic Spin Dipole Couplings in Principal Axis System
 ---------------------------------------------------------------------------------

       Atom             a.u.   MegaHertz   Gauss  10(-4) cm-1        Axes

              Baa    -0.0013     0.095     0.034     0.032  0.9905  0.1248 -0.0578
     1 O(17)  Bbb    -0.0003     0.022     0.008     0.007  0.1289 -0.6957  0.7067
              Bcc     0.0016    -0.117    -0.042    -0.039 -0.0479  0.7075  0.7051
 
              Baa    -0.0004    -0.227    -0.081    -0.076  0.1804  0.7985  0.5743
     2 H(1)   Bbb     0.0002     0.095     0.034     0.032 -0.3047 -0.5098  0.8045
              Bcc     0.0002     0.132     0.047     0.044  0.9352 -0.3201  0.1514
 
              Baa    -0.0000    -0.014    -0.005    -0.005  0.9124 -0.0449 -0.4068
     3 H(1)   Bbb    -0.0000    -0.003    -0.001    -0.001  0.3163 -0.5532  0.7706
              Bcc     0.0000     0.017     0.006     0.006  0.2597  0.8318  0.4906
 
              Baa    -0.0000     0.002     0.001     0.001  0.9746 -0.0261  0.2226
     4 O(17)  Bbb     0.0000    -0.001    -0.000    -0.000 -0.0899  0.8642  0.4951
              Bcc     0.0000    -0.001    -0.000    -0.000 -0.2053 -0.5025  0.8398
 
              Baa    -0.0000    -0.004    -0.001    -0.001  0.9647  0.2621 -0.0259
     5 H(1)   Bbb     0.0000     0.001     0.001     0.000  0.0868 -0.2233  0.9709
              Bcc     0.0000     0.003     0.001     0.001 -0.2486  0.9389  0.2382
 
              Baa    -0.0000    -0.008    -0.003    -0.003  0.9092  0.0830  0.4080
     6 H(1)   Bbb     0.0000     0.004     0.001     0.001  0.0079  0.9763 -0.2164
              Bcc     0.0000     0.004     0.002     0.001 -0.4163  0.1999  0.8870
 
              Baa    -0.0000     0.001     0.000     0.000  0.7760 -0.1020 -0.6225
     7 O(17)  Bbb    -0.0000     0.000     0.000     0.000  0.4576 -0.5881  0.6669
              Bcc     0.0000    -0.001    -0.000    -0.000  0.4341  0.8023  0.4097
 
              Baa    -0.0000    -0.003    -0.001    -0.001  0.7446  0.5144 -0.4255
     8 H(1)   Bbb     0.0000     0.001     0.000     0.000  0.4310  0.1162  0.8948
              Bcc     0.0000     0.002     0.001     0.001 -0.5097  0.8497  0.1352
 
              Baa    -0.0000    -0.001    -0.000    -0.000  0.8895  0.0933 -0.4473
     9 H(1)   Bbb     0.0000     0.000     0.000     0.000  0.4563 -0.1291  0.8804
              Bcc     0.0000     0.001     0.000     0.000 -0.0244  0.9872  0.1574
 
              Baa    -0.0008     0.059     0.021     0.020  0.3162 -0.6517  0.6894
    10 O(17)  Bbb    -0.0007     0.051     0.018     0.017  0.6670  0.6695  0.3269
              Bcc     0.0015    -0.110    -0.039    -0.037  0.6746 -0.3565 -0.6464
 
              Baa    -0.0000    -0.021    -0.007    -0.007  0.0621 -0.0294  0.9976
    11 H(1)   Bbb    -0.0000    -0.020    -0.007    -0.007  0.8811 -0.4680 -0.0686
              Bcc     0.0001     0.041     0.015     0.014  0.4689  0.8832 -0.0031
 
              Baa    -0.0001    -0.077    -0.027    -0.026  0.8948 -0.1146 -0.4315
    12 H(1)   Bbb     0.0000     0.014     0.005     0.005  0.3412  0.7989  0.4953
              Bcc     0.0001     0.063     0.022     0.021  0.2879 -0.5905  0.7540
 
              Baa    -0.0097     0.701     0.250     0.234  0.0559 -0.0138  0.9983
    13 O(17)  Bbb    -0.0078     0.566     0.202     0.189  0.7892  0.6131 -0.0357
              Bcc     0.0175    -1.268    -0.452    -0.423 -0.6116  0.7899  0.0452
 
              Baa    -0.0005    -0.285    -0.102    -0.095 -0.1198  0.5888  0.7993
    14 H(1)   Bbb    -0.0003    -0.171    -0.061    -0.057  0.7005 -0.5204  0.4883
              Bcc     0.0009     0.457     0.163     0.152  0.7035  0.6184 -0.3501
 
              Baa    -0.0009    -0.461    -0.164    -0.154 -0.6367  0.7686  0.0625
    15 H(1)   Bbb    -0.0003    -0.154    -0.055    -0.051  0.7607  0.6393 -0.1122
              Bcc     0.0012     0.614     0.219     0.205  0.1262  0.0240  0.9917
 
              Baa    -0.0000     0.000     0.000     0.000  0.4201  0.9075  0.0014
    16 O(17)  Bbb     0.0000    -0.000    -0.000    -0.000  0.0648 -0.0315  0.9974
              Bcc     0.0000    -0.000    -0.000    -0.000  0.9052 -0.4189 -0.0721
 
              Baa    -0.0000    -0.002    -0.001    -0.001  0.4303  0.9022  0.0282
    17 H(1)   Bbb     0.0000     0.001     0.000     0.000  0.2316 -0.1405  0.9626
              Bcc     0.0000     0.001     0.000     0.000  0.8725 -0.4077 -0.2694
 
              Baa    -0.0000    -0.002    -0.001    -0.001  0.1322  0.9324 -0.3365
    18 H(1)   Bbb     0.0000     0.001     0.000     0.000 -0.0113  0.3408  0.9401
              Bcc     0.0000     0.001     0.001     0.000  0.9912 -0.1205  0.0556
 
              Baa    -0.0000     0.000     0.000     0.000  0.5361  0.7865  0.3065
    19 O(17)  Bbb     0.0000    -0.000    -0.000    -0.000 -0.3741 -0.1042  0.9215
              Bcc     0.0000    -0.000    -0.000    -0.000  0.7567 -0.6087  0.2384
 
              Baa    -0.0000    -0.003    -0.001    -0.001  0.5090  0.6881  0.5171
    20 H(1)   Bbb     0.0000     0.001     0.000     0.000 -0.3240  0.7097 -0.6256
              Bcc     0.0000     0.002     0.001     0.001  0.7975 -0.1508 -0.5842
 
              Baa    -0.0000    -0.001    -0.000    -0.000  0.3142  0.7238  0.6143
    21 H(1)   Bbb     0.0000     0.000     0.000     0.000  0.1268 -0.6733  0.7284
              Bcc     0.0000     0.001     0.000     0.000  0.9408 -0.1510 -0.3034
 
              Baa    -0.0001     0.008     0.003     0.003  0.9738  0.2263 -0.0238
    22 O(17)  Bbb    -0.0001     0.006     0.002     0.002  0.0674 -0.1871  0.9800
              Bcc     0.0002    -0.014    -0.005    -0.005 -0.2173  0.9559  0.1974
 
              Baa    -0.0000    -0.010    -0.003    -0.003  0.8237 -0.3231  0.4660
    23 H(1)   Bbb    -0.0000    -0.001    -0.000    -0.000  0.5121  0.7767 -0.3668
              Bcc     0.0000     0.011     0.004     0.004 -0.2434  0.5407  0.8052
 
              Baa    -0.0001    -0.044    -0.016    -0.015  0.5470  0.0579  0.8351
    24 H(1)   Bbb    -0.0001    -0.035    -0.013    -0.012  0.7485  0.4130 -0.5188
              Bcc     0.0001     0.080     0.028     0.027 -0.3750  0.9089  0.1826
 
              Baa    -0.0001     0.009     0.003     0.003  0.7929 -0.2101 -0.5719
    25 O(17)  Bbb    -0.0000     0.003     0.001     0.001  0.1671  0.9777 -0.1276
              Bcc     0.0002    -0.012    -0.004    -0.004  0.5859  0.0056  0.8103
 
              Baa    -0.0001    -0.058    -0.021    -0.019  0.4940 -0.5524  0.6714
    26 H(1)   Bbb     0.0000     0.004     0.001     0.001  0.0928  0.8014  0.5909
              Bcc     0.0001     0.054     0.019     0.018  0.8645  0.2296 -0.4472
 
              Baa    -0.0000    -0.006    -0.002    -0.002  0.5880 -0.4982  0.6371
    27 H(1)   Bbb     0.0000     0.002     0.001     0.001 -0.7039  0.0727  0.7065
              Bcc     0.0000     0.004     0.001     0.001  0.3984  0.8640  0.3080
 
              Baa    -0.0001     0.008     0.003     0.003 -0.5586 -0.0511  0.8278
    28 O(17)  Bbb    -0.0001     0.008     0.003     0.003  0.8110 -0.2428  0.5323
              Bcc     0.0002    -0.016    -0.006    -0.005  0.1738  0.9687  0.1771
 
              Baa    -0.0000    -0.005    -0.002    -0.002 -0.4343 -0.5568  0.7081
    29 H(1)   Bbb    -0.0000    -0.000    -0.000    -0.000  0.0174  0.7807  0.6246
              Bcc     0.0000     0.006     0.002     0.002  0.9006 -0.2836  0.3294
 
              Baa    -0.0000    -0.006    -0.002    -0.002  0.4887  0.8696 -0.0710
    30 H(1)   Bbb    -0.0000    -0.003    -0.001    -0.001  0.8722 -0.4890  0.0136
              Bcc     0.0000     0.010     0.004     0.003  0.0229  0.0686  0.9974
 
              Baa    -0.0000     0.000     0.000     0.000  0.7248 -0.5958 -0.3458
    31 O(17)  Bbb    -0.0000     0.000     0.000     0.000  0.1930 -0.3062  0.9322
              Bcc     0.0000    -0.000    -0.000    -0.000  0.6613  0.7424  0.1069
 
              Baa    -0.0000    -0.004    -0.001    -0.001  0.4520 -0.5367  0.7125
    32 H(1)   Bbb    -0.0000    -0.000    -0.000    -0.000  0.7530 -0.1985 -0.6273
              Bcc     0.0000     0.004     0.001     0.001  0.4781  0.8201  0.3145
 
              Baa    -0.0000    -0.001    -0.000    -0.000  0.3914 -0.5740  0.7192
    33 H(1)   Bbb    -0.0000    -0.000    -0.000    -0.000  0.7265 -0.2869 -0.6244
              Bcc     0.0000     0.001     0.000     0.000  0.5648  0.7669  0.3047
 
              Baa    -0.0058     0.423     0.151     0.141 -0.1089  0.9487  0.2969
    34 O(17)  Bbb    -0.0050     0.359     0.128     0.120  0.9558  0.1820 -0.2309
              Bcc     0.0108    -0.782    -0.279    -0.261  0.2731 -0.2587  0.9265
 
              Baa    -0.0005    -0.286    -0.102    -0.095 -0.3311  0.6834 -0.6507
    35 H(1)   Bbb    -0.0001    -0.069    -0.025    -0.023 -0.1534  0.6414  0.7517
              Bcc     0.0007     0.356     0.127     0.119  0.9311  0.3487 -0.1075
 
              Baa    -0.0006    -0.331    -0.118    -0.111  0.6131 -0.0831  0.7856
    36 H(1)   Bbb    -0.0001    -0.074    -0.026    -0.025  0.7759  0.2502 -0.5790
              Bcc     0.0008     0.405     0.145     0.135 -0.1485  0.9646  0.2179
 
              Baa    -0.0021     0.152     0.054     0.051  0.0793  0.2022  0.9761
    37 O(17)  Bbb    -0.0007     0.051     0.018     0.017  0.2073  0.9545 -0.2146
              Bcc     0.0028    -0.202    -0.072    -0.068  0.9751 -0.2193 -0.0337
 
              Baa    -0.0001    -0.050    -0.018    -0.017 -0.6124 -0.1436  0.7774
    38 H(1)   Bbb    -0.0000    -0.026    -0.009    -0.009  0.7785  0.0616  0.6246
              Bcc     0.0001     0.076     0.027     0.025 -0.1376  0.9877  0.0740
 
              Baa    -0.0005    -0.279    -0.100    -0.093  0.8246 -0.5326 -0.1908
    39 H(1)   Bbb     0.0002     0.093     0.033     0.031  0.5237  0.8461 -0.0991
              Bcc     0.0003     0.187     0.067     0.062  0.2142 -0.0182  0.9766
 
              Baa    -0.0026     0.186     0.066     0.062 -0.5393  0.7597  0.3632
    40 O(17)  Bbb    -0.0018     0.127     0.045     0.042  0.7573  0.2489  0.6037
              Bcc     0.0043    -0.313    -0.112    -0.104 -0.3683 -0.6007  0.7096
 
              Baa    -0.0003    -0.136    -0.049    -0.046  0.3932  0.7095 -0.5849
    41 H(1)   Bbb    -0.0000    -0.017    -0.006    -0.006  0.5269  0.3474  0.7757
              Bcc     0.0003     0.154     0.055     0.051  0.7535 -0.6132 -0.2373
 
              Baa    -0.0002    -0.085    -0.030    -0.028  0.9948 -0.0904 -0.0478
    42 H(1)   Bbb    -0.0001    -0.076    -0.027    -0.025  0.0324 -0.1655  0.9857
              Bcc     0.0003     0.161     0.057     0.054  0.0971  0.9821  0.1617
 
              Baa    -0.0001     0.009     0.003     0.003  0.8353 -0.1700 -0.5229
    43 O(17)  Bbb    -0.0001     0.009     0.003     0.003  0.5236 -0.0439  0.8508
              Bcc     0.0002    -0.018    -0.006    -0.006  0.1676  0.9845 -0.0523
 
              Baa    -0.0000    -0.006    -0.002    -0.002 -0.1827  0.4795  0.8583
    44 H(1)   Bbb     0.0000     0.000     0.000     0.000 -0.0960  0.8602 -0.5009
              Bcc     0.0000     0.005     0.002     0.002  0.9785  0.1740  0.1111
 
              Baa    -0.0001    -0.032    -0.011    -0.011  0.1170  0.0568  0.9915
    45 H(1)   Bbb    -0.0001    -0.030    -0.011    -0.010  0.9590 -0.2659 -0.0980
              Bcc     0.0001     0.062     0.022     0.021  0.2580  0.9623 -0.0856
 
              Baa    -0.0076     0.553     0.197     0.185  0.4505  0.2288  0.8630
    46 O(17)  Bbb    -0.0074     0.538     0.192     0.180 -0.6391  0.7575  0.1328
              Bcc     0.0151    -1.092    -0.389    -0.364  0.6234  0.6114 -0.4874
 
              Baa    -0.0008    -0.407    -0.145    -0.136  0.5042  0.7877 -0.3540
    47 H(1)   Bbb    -0.0002    -0.110    -0.039    -0.037  0.8248 -0.5607 -0.0729
              Bcc     0.0010     0.517     0.185     0.173  0.2559  0.2552  0.9324
 
              Baa    -0.0007    -0.363    -0.129    -0.121 -0.5703 -0.4602  0.6804
    48 H(1)   Bbb    -0.0003    -0.135    -0.048    -0.045  0.6627  0.2317  0.7121
              Bcc     0.0009     0.497     0.177     0.166 -0.4854  0.8571  0.1728
 
              Baa    -0.0000     0.003     0.001     0.001  0.9718  0.2357 -0.0016
    49 O(17)  Bbb    -0.0000     0.002     0.001     0.001 -0.0150  0.0685  0.9975
              Bcc     0.0001    -0.005    -0.002    -0.002 -0.2353  0.9694 -0.0701
 
              Baa    -0.0000    -0.005    -0.002    -0.002 -0.5243  0.8178  0.2373
    50 H(1)   Bbb     0.0000     0.001     0.000     0.000 -0.2189 -0.3987  0.8906
              Bcc     0.0000     0.004     0.001     0.001  0.8229  0.4150  0.3881
 
              Baa    -0.0000    -0.002    -0.001    -0.001 -0.5097  0.8452 -0.1606
    51 H(1)   Bbb    -0.0000    -0.000    -0.000    -0.000  0.7344  0.5247  0.4307
              Bcc     0.0000     0.002     0.001     0.001 -0.4483 -0.1015  0.8881
 
              Baa    -0.0043     0.314     0.112     0.105 -0.2843 -0.3254  0.9018
    52 O(17)  Bbb    -0.0034     0.247     0.088     0.082  0.9417 -0.2712  0.1990
              Bcc     0.0078    -0.561    -0.200    -0.187  0.1799  0.9059  0.3835
 
              Baa    -0.0005    -0.292    -0.104    -0.097  0.0593  0.7291  0.6818
    53 H(1)   Bbb     0.0000     0.001     0.000     0.000  0.0706 -0.6844  0.7257
              Bcc     0.0005     0.292     0.104     0.097  0.9957  0.0051 -0.0921
 
              Baa    -0.0007    -0.358    -0.128    -0.119  0.4118  0.8613  0.2977
    54 H(1)   Bbb    -0.0000    -0.005    -0.002    -0.002  0.9049 -0.4249 -0.0222
              Bcc     0.0007     0.363     0.130     0.121 -0.1074 -0.2785  0.9544
 
              Baa    -0.0081     0.586     0.209     0.195  0.8722  0.2979 -0.3880
    55 O(17)  Bbb    -0.0079     0.571     0.204     0.191 -0.0852  0.8735  0.4793
              Bcc     0.0160    -1.157    -0.413    -0.386  0.4817 -0.3850  0.7873
 
              Baa    -0.0008    -0.413    -0.147    -0.138  0.7237 -0.2212  0.6538
    56 H(1)   Bbb    -0.0002    -0.121    -0.043    -0.040 -0.6883 -0.1618  0.7072
              Bcc     0.0010     0.534     0.190     0.178  0.0506  0.9617  0.2693
 
              Baa    -0.0009    -0.472    -0.168    -0.157 -0.3938  0.6545 -0.6454
    57 H(1)   Bbb    -0.0002    -0.096    -0.034    -0.032 -0.0552  0.6840  0.7274
              Bcc     0.0011     0.568     0.203     0.189  0.9175  0.3221 -0.2333
 
              Baa    -0.0000     0.001     0.000     0.000 -0.0010  0.9955  0.0950
    58 O(17)  Bbb     0.0000    -0.000    -0.000    -0.000  0.8982  0.0426 -0.4375
              Bcc     0.0000    -0.000    -0.000    -0.000  0.4395 -0.0849  0.8942
 
              Baa    -0.0000    -0.002    -0.001    -0.001 -0.1251  0.9897 -0.0700
    59 H(1)   Bbb     0.0000     0.001     0.000     0.000 -0.6430 -0.0272  0.7654
              Bcc     0.0000     0.002     0.001     0.001  0.7556  0.1408  0.6398
 
              Baa    -0.0000    -0.003    -0.001    -0.001  0.2666  0.8606  0.4339
    60 H(1)   Bbb     0.0000     0.000     0.000     0.000 -0.5407 -0.2391  0.8065
              Bcc     0.0000     0.003     0.001     0.001  0.7978 -0.4496  0.4017
 

 ---------------------------------------------------------------------------------

 No NMR shielding tensors so no spin-rotation constants.
 Leave Link  601 at Fri Apr 30 08:18:22 2021, MaxMem= 12079595520 cpu:            6079.8 elap:             130.3
 (Enter /s/ls4/groups/g0130/bin/g16/l9999.exe)

 Test job not archived.
 1\1\GINC-N010\Stability\UM062X\Gen\H40O20\ROOT\30-Apr-2021\0\\#P M062X
 /GEN Integral=UltraFineGrid SCF=NoSymm Stable=(RExt, Opt,restart) IOp(
 1/33=1)\\Database calculations.\\0,1\O,0,-8.089741,1.074241,2.604597\H
 ,0,-7.897586,1.105451,1.667401\H,0,-9.008893,0.811379,2.652497\O,0,-2.
 491594,2.366302,-2.808838\H,0,-2.718975,1.472741,-3.065899\H,0,-3.3288
 55,2.771379,-2.582698\O,0,-3.082319,-0.326799,-3.16435\H,0,-2.323032,-
 0.537229,-2.62081\H,0,-2.991242,-0.890624,-3.93249\O,0,-5.194877,0.470
 375,-1.575989\H,0,-4.558935,0.051769,-2.156144\H,0,-5.179072,1.393463,
 -1.828755\O,0,-7.332604,1.373512,0.032896\H,0,-6.791426,0.852078,-0.55
 995\H,0,-6.850002,2.193183,0.139982\O,0,-0.920626,-0.668417,-1.601304\
 H,0,-0.541948,0.207821,-1.530297\H,0,-1.140526,-0.90849,-0.70117\O,0,-
 0.280166,2.020978,-1.293948\H,0,-1.055471,2.24118,-1.810326\H,0,0.4300
 2,2.513559,-1.705326\O,0,-3.572237,-0.802506,5.022436\H,0,-3.321891,0.
 049699,5.379237\H,0,-4.381171,-0.632367,4.539827\O,0,-5.078067,3.16685
 4,-2.145261\H,0,-5.323061,3.490346,-1.278333\H,0,-5.650501,3.640509,-2
 .748752\O,0,-1.723783,-0.790061,1.035897\H,0,-1.587361,-1.220268,1.880
 02\H,0,-1.390298,0.098183,1.16256\O,0,-1.389892,-1.590569,3.650173\H,0
 ,-2.196111,-1.394621,4.127507\H,0,-1.047858,-2.379591,4.070518\O,0,-5.
 801948,3.625424,0.455744\H,0,-6.312883,3.844757,1.234892\H,0,-4.954089
 ,3.340956,0.796987\O,0,-4.689817,2.555205,3.989712\H,0,-4.004954,2.424
 357,4.645513\H,0,-5.058943,1.683019,3.850891\O,0,-4.318944,0.013724,0.
 981553\H,0,-4.612322,0.061371,0.071668\H,0,-3.458064,-0.402114,0.93466
 7\O,0,-0.951752,1.791811,1.371249\H,0,-0.63652,1.98406,0.488128\H,0,-1
 .812694,2.207898,1.414631\O,0,-7.031548,3.642818,2.893596\H,0,-7.52584
 3,2.82313,2.897654\H,0,-6.261517,3.461384,3.432453\O,0,-2.64251,1.7444
 28,5.647782\H,0,-1.879822,1.579657,5.093353\H,0,-2.276311,2.07903,6.46
 6423\O,0,-3.560354,2.547371,1.518088\H,0,-3.855196,2.670109,2.420438\H
 ,0,-3.832542,1.657045,1.295678\O,0,-5.640478,0.078334,3.384568\H,0,-6.
 555918,0.291259,3.203281\H,0,-5.25152,-0.063107,2.52147\O,0,-0.598806,
 1.049974,4.030335\H,0,-0.719459,0.108082,3.909857\H,0,-0.56655,1.40343
 8,3.141371\\Version=ES64L-G16RevA.03\State=1-A\HF=-1529.0540213\S2=0.0
 01217\S2-1=0.\S2A=0.\RMSD=1.298e-09\Dipole=0.3377992,-0.4498085,-0.885
 4662\Quadrupole=-2.4824595,-7.4372877,9.9197472,3.989653,3.6171956,-3.
 9450532\PG=C01 [X(H40O20)]\\@


 ADVERTISING--  HE WHO HAS SOMETHING TO SELL AND GOES AND WHISPERS
                IN A WELL, IS NOT SO APT TO GET THE DOLLARS AS HE
                WHO CLIMBS A TREE AND HOLLERS.

                   -- FROM THE BACK OF A SUGAR PACKET
 Job cpu time:      29 days 14 hours 57 minutes 12.5 seconds.
 Elapsed time:       0 days 15 hours  2 minutes  7.2 seconds.
 File lengths (MBytes):  RWF=  14053 Int=      0 D2E=      0 Chk=    785 Scr=      1
 Normal termination of Gaussian 16 at Fri Apr 30 08:18:24 2021.
