 Entering Gaussian System, Link 0=/s/ls4/users/knvvv/bin/g16sse/g16
 Input=data/database/M062X--def2-QZVPPD--60_hnc_BH76.gjf
 Output=data/database/M062X--def2-QZVPPD--60_hnc_BH76.log
 Initial command:
 /s/ls4/users/knvvv/bin/g16sse/l1.exe "/s/ls4/users/knvvv/bin/scratch/Gau-32827.inp" -scrdir="/s/ls4/users/knvvv/bin/scratch/"
 Entering Link 1 = /s/ls4/users/knvvv/bin/g16sse/l1.exe PID=     32828.
  
 Copyright (c) 1988,1990,1992,1993,1995,1998,2003,2009,2016,
            Gaussian, Inc.  All Rights Reserved.
  
 This is part of the Gaussian(R) 16 program.  It is based on
 the Gaussian(R) 09 system (copyright 2009, Gaussian, Inc.),
 the Gaussian(R) 03 system (copyright 2003, Gaussian, Inc.),
 the Gaussian(R) 98 system (copyright 1998, Gaussian, Inc.),
 the Gaussian(R) 94 system (copyright 1995, Gaussian, Inc.),
 the Gaussian 92(TM) system (copyright 1992, Gaussian, Inc.),
 the Gaussian 90(TM) system (copyright 1990, Gaussian, Inc.),
 the Gaussian 88(TM) system (copyright 1988, Gaussian, Inc.),
 the Gaussian 86(TM) system (copyright 1986, Carnegie Mellon
 University), and the Gaussian 82(TM) system (copyright 1983,
 Carnegie Mellon University). Gaussian is a federally registered
 trademark of Gaussian, Inc.
  
 This software contains proprietary and confidential information,
 including trade secrets, belonging to Gaussian, Inc.
  
 This software is provided under written license and may be
 used, copied, transmitted, or stored only in accord with that
 written license.
  
 The following legend is applicable only to US Government
 contracts under FAR:
  
                    RESTRICTED RIGHTS LEGEND
  
 Use, reproduction and disclosure by the US Government is
 subject to restrictions as set forth in subparagraphs (a)
 and (c) of the Commercial Computer Software - Restricted
 Rights clause in FAR 52.227-19.
  
 Gaussian, Inc.
 340 Quinnipiac St., Bldg. 40, Wallingford CT 06492
  
  
 ---------------------------------------------------------------
 Warning -- This program may not be used in any manner that
 competes with the business of Gaussian, Inc. or will provide
 assistance to any competitor of Gaussian, Inc.  The licensee
 of this program is prohibited from giving any competitor of
 Gaussian, Inc. access to this program.  By using this program,
 the user acknowledges that Gaussian, Inc. is engaged in the
 business of creating and licensing software in the field of
 computational chemistry and represents and warrants to the
 licensee that it is not a competitor of Gaussian, Inc. and that
 it will not use this program in any manner prohibited above.
 ---------------------------------------------------------------
  

 Cite this work as:
 Gaussian 16, Revision A.03,
 M. J. Frisch, G. W. Trucks, H. B. Schlegel, G. E. Scuseria, 
 M. A. Robb, J. R. Cheeseman, G. Scalmani, V. Barone, 
 G. A. Petersson, H. Nakatsuji, X. Li, M. Caricato, A. V. Marenich, 
 J. Bloino, B. G. Janesko, R. Gomperts, B. Mennucci, H. P. Hratchian, 
 J. V. Ortiz, A. F. Izmaylov, J. L. Sonnenberg, D. Williams-Young, 
 F. Ding, F. Lipparini, F. Egidi, J. Goings, B. Peng, A. Petrone, 
 T. Henderson, D. Ranasinghe, V. G. Zakrzewski, J. Gao, N. Rega, 
 G. Zheng, W. Liang, M. Hada, M. Ehara, K. Toyota, R. Fukuda, 
 J. Hasegawa, M. Ishida, T. Nakajima, Y. Honda, O. Kitao, H. Nakai, 
 T. Vreven, K. Throssell, J. A. Montgomery, Jr., J. E. Peralta, 
 F. Ogliaro, M. J. Bearpark, J. J. Heyd, E. N. Brothers, K. N. Kudin, 
 V. N. Staroverov, T. A. Keith, R. Kobayashi, J. Normand, 
 K. Raghavachari, A. P. Rendell, J. C. Burant, S. S. Iyengar, 
 J. Tomasi, M. Cossi, J. M. Millam, M. Klene, C. Adamo, R. Cammi, 
 J. W. Ochterski, R. L. Martin, K. Morokuma, O. Farkas, 
 J. B. Foresman, and D. J. Fox, Gaussian, Inc., Wallingford CT, 2016.
 
 ******************************************
 Gaussian 16:  ES64L-G16RevA.03 25-Dec-2016
                18-Apr-2021 
 ******************************************
 %RWF=temp12_39349,70GB
 %nprocshared=48
 Will use up to   48 processors via shared memory.
 Default route: MaxDisk=80GB
 ----------------------------------------------------------------------
 #P M062X/GEN Integral=UltraFineGrid SCF=NoSymm Stable=(RExt, Opt) IOp(
 1/33=1)
 ----------------------------------------------------------------------
 1/33=1,38=1,172=1/1;
 2/12=2,17=6,18=5,40=1/2;
 3/5=7,11=2,25=1,30=1,74=-55,75=-5/1,2,3;
 4/9=2/1;
 5/5=2,38=5/2;
 6/7=2,8=2,9=2,10=2,28=1/1;
 8/6=1,10=90,11=11/1;
 9/8=-3,42=1,46=1/14;
 5/5=2,8=3,17=40,38=5/8(-2);
 6/7=2,8=2,9=2,10=2,28=1/1;
 99/5=1,9=1/99;
 Leave Link    1 at Sun Apr 18 03:15:36 2021, MaxMem=           0 cpu:              10.9 elap:               0.2
 (Enter /s/ls4/users/knvvv/bin/g16sse/l101.exe)
 ONIOM data not found on unit 2.
 ----------------------
 Database calculations.
 ----------------------
 TstMul:  ICh=     0
 TstMul:  Mul=     1
 TstMul:  ICh=     0
 TstMul:  Mul=     1
 Symbolic Z-matrix:
 Charge =  0 Multiplicity = 1
 C                     0.        0.       -0.73926 
 N                     0.        0.        0.43008 
 H                     0.        0.        1.42495 
 
 RdStrC is calling ZToCFu for IStruc=1 NZ=     3.
 PrtBox:  NBox=     1 Levels=  1 BoxLen=    8.00 SMaxX=        4.09
          Shift=            0.000000            0.000000            1.396990
 Box      1 Number                   0 centers from      1 to      3:
 After GenITR:
 ITRead=  0  0  0
 MicOpt= -1 -1 -1
 ITRead=  0  0  0
 MicOpt= -1 -1 -1
 NAtoms=      3 NQM=        3 NQMF=       0 NMMI=      0 NMMIF=      0
                NMic=       0 NMicF=      0.
                    Isotopes and Nuclear Properties:
 (Nuclear quadrupole moments (NQMom) in fm**2, nuclear magnetic moments (NMagM)
  in nuclear magnetons)

  Atom         1           2           3
 IAtWgt=          12          14           1
 AtmWgt=  12.0000000  14.0030740   1.0078250
 NucSpn=           0           2           1
 AtZEff=  -0.0000000  -0.0000000  -0.0000000
 NQMom=    0.0000000   2.0440000   0.0000000
 NMagM=    0.0000000   0.4037610   2.7928460
 AtZNuc=   6.0000000   7.0000000   1.0000000
 No MM parameters found.
 Leave Link  101 at Sun Apr 18 03:15:36 2021, MaxMem=   104857600 cpu:               6.9 elap:               0.2
 (Enter /s/ls4/users/knvvv/bin/g16sse/l202.exe)
                          Input orientation:                          
 ---------------------------------------------------------------------
 Center     Atomic      Atomic             Coordinates (Angstroms)
 Number     Number       Type             X           Y           Z
 ---------------------------------------------------------------------
      1          6           0        0.000000    0.000000   -0.739255
      2          7           0        0.000000    0.000000    0.430082
      3          1           0        0.000000    0.000000    1.424953
 ---------------------------------------------------------------------
                    Distance matrix (angstroms):
                    1          2          3
     1  C    0.000000
     2  N    1.169338   0.000000
     3  H    2.164208   0.994870   0.000000
 Stoichiometry    CHN
 Framework group  C*V[C*(CNH)]
 Deg. of freedom     2
 Full point group                 C*V     NOp   4
 Largest Abelian subgroup         C2V     NOp   4
 Largest concise Abelian subgroup C1      NOp   1
                         Standard orientation:                         
 ---------------------------------------------------------------------
 Center     Atomic      Atomic             Coordinates (Angstroms)
 Number     Number       Type             X           Y           Z
 ---------------------------------------------------------------------
      1          6           0        0.000000    0.000000   -0.739255
      2          7           0        0.000000    0.000000    0.430083
      3          1           0        0.000000    0.000000    1.424953
 ---------------------------------------------------------------------
 Rotational constants (GHZ):           0.0000000          45.4450696          45.4450696
 Leave Link  202 at Sun Apr 18 03:15:36 2021, MaxMem=   104857600 cpu:               5.7 elap:               0.1
 (Enter /s/ls4/users/knvvv/bin/g16sse/l301.exe)
 General basis read from cards:  (5D, 7F)
 Centers:       3
 S 4 1.00
     Exponent=  1.9069169000D+02 Coefficients=  7.0815167000D-04
     Exponent=  2.8605532000D+01 Coefficients=  5.4678827000D-03
     Exponent=  6.5095943000D+00 Coefficients=  2.7966605000D-02
     Exponent=  1.8412455000D+00 Coefficients=  1.0764538000D-01
 S 1 1.00
     Exponent=  5.9853725000D-01 Coefficients=  1.0000000000D+00
 S 1 1.00
     Exponent=  2.1397624000D-01 Coefficients=  1.0000000000D+00
 S 1 1.00
     Exponent=  8.0316286000D-02 Coefficients=  1.0000000000D+00
 P 1 1.00
     Exponent=  2.2920000000D+00 Coefficients=  1.0000000000D+00
 P 1 1.00
     Exponent=  8.3800000000D-01 Coefficients=  1.0000000000D+00
 P 1 1.00
     Exponent=  2.9200000000D-01 Coefficients=  1.0000000000D+00
 P 1 1.00
     Exponent=  8.4063199228D-02 Coefficients=  1.0000000000D+00
 D 1 1.00
     Exponent=  2.0620000000D+00 Coefficients=  1.0000000000D+00
 D 1 1.00
     Exponent=  6.6200000000D-01 Coefficients=  1.0000000000D+00
 F 1 1.00
     Exponent=  1.3970000000D+00 Coefficients=  1.0000000000D+00
 ****
 Centers:       1
 S 8 1.00
     Exponent=  6.7025071029D+04 Coefficients=  3.8736308501D-05
     Exponent=  1.0039986538D+04 Coefficients=  3.0107917575D-04
     Exponent=  2.2849316911D+03 Coefficients=  1.5787918095D-03
     Exponent=  6.4714122130D+02 Coefficients=  6.6087087195D-03
     Exponent=  2.1109472335D+02 Coefficients=  2.3367123250D-02
     Exponent=  7.6177643862D+01 Coefficients=  7.0420716898D-02
     Exponent=  2.9633839163D+01 Coefficients=  1.7360344953D-01
     Exponent=  1.2187785081D+01 Coefficients=  3.2292305648D-01
 S 2 1.00
     Exponent=  5.3026006299D+01 Coefficients=  7.4897404492D-02
     Exponent=  1.5258502776D+01 Coefficients=  7.6136220983D-01
 S 1 1.00
     Exponent=  5.2403957464D+00 Coefficients=  1.0000000000D+00
 S 1 1.00
     Exponent=  2.2905022379D+00 Coefficients=  1.0000000000D+00
 S 1 1.00
     Exponent=  6.9673283006D-01 Coefficients=  1.0000000000D+00
 S 1 1.00
     Exponent=  2.7599337363D-01 Coefficients=  1.0000000000D+00
 S 1 1.00
     Exponent=  1.0739884389D-01 Coefficients=  1.0000000000D+00
 S 1 1.00
     Exponent=  4.4981404899D-02 Coefficients=  1.0000000000D+00
 P 5 1.00
     Exponent=  1.0512555082D+02 Coefficients=  8.4647553844D-04
     Exponent=  2.4884461066D+01 Coefficients=  6.6274038534D-03
     Exponent=  7.8637230826D+00 Coefficients=  3.0120390419D-02
     Exponent=  2.8407001835D+00 Coefficients=  9.9951435476D-02
     Exponent=  1.1227137335D+00 Coefficients=  2.3826299282D-01
 P 1 1.00
     Exponent=  4.6050725555D-01 Coefficients=  1.0000000000D+00
 P 1 1.00
     Exponent=  1.8937530913D-01 Coefficients=  1.0000000000D+00
 P 1 1.00
     Exponent=  7.5983791611D-02 Coefficients=  1.0000000000D+00
 D 1 1.00
     Exponent=  1.8480000000D+00 Coefficients=  1.0000000000D+00
 D 1 1.00
     Exponent=  6.4900000000D-01 Coefficients=  1.0000000000D+00
 D 1 1.00
     Exponent=  2.2800000000D-01 Coefficients=  1.0000000000D+00
 D 1 1.00
     Exponent=  7.6889830417D-02 Coefficients=  1.0000000000D+00
 F 1 1.00
     Exponent=  1.4190000000D+00 Coefficients=  1.0000000000D+00
 F 1 1.00
     Exponent=  4.8500000000D-01 Coefficients=  1.0000000000D+00
 G 1 1.00
     Exponent=  1.0110000000D+00 Coefficients=  1.0000000000D+00
 ****
 Centers:       2
 S 8 1.00
     Exponent=  9.0726889210D+04 Coefficients=  3.9257887368D-05
     Exponent=  1.3590528801D+04 Coefficients=  3.0513316455D-04
     Exponent=  3.0929883781D+03 Coefficients=  1.6000560446D-03
     Exponent=  8.7599876362D+02 Coefficients=  6.6982937306D-03
     Exponent=  2.8574469982D+02 Coefficients=  2.3690078765D-02
     Exponent=  1.0311913417D+02 Coefficients=  7.1455405268D-02
     Exponent=  4.0128556777D+01 Coefficients=  1.7632774876D-01
     Exponent=  1.6528095704D+01 Coefficients=  3.2677592815D-01
 S 2 1.00
     Exponent=  6.9390960983D+01 Coefficients=  8.0052094386D-02
     Exponent=  2.0428200596D+01 Coefficients=  7.8268063538D-01
 S 1 1.00
     Exponent=  7.1292587972D+00 Coefficients=  1.0000000000D+00
 S 1 1.00
     Exponent=  3.1324304893D+00 Coefficients=  1.0000000000D+00
 S 1 1.00
     Exponent=  9.8755778723D-01 Coefficients=  1.0000000000D+00
 S 1 1.00
     Exponent=  3.8765721307D-01 Coefficients=  1.0000000000D+00
 S 1 1.00
     Exponent=  1.4909883075D-01 Coefficients=  1.0000000000D+00
 S 1 1.00
     Exponent=  6.2151630318D-02 Coefficients=  1.0000000000D+00
 P 5 1.00
     Exponent=  1.5005742670D+02 Coefficients= -8.6216165986D-04
     Exponent=  3.5491599483D+01 Coefficients= -6.8571273236D-03
     Exponent=  1.1247864223D+01 Coefficients= -3.1795688855D-02
     Exponent=  4.0900305195D+00 Coefficients= -1.0537396822D-01
     Exponent=  1.6220573146D+00 Coefficients= -2.4519708041D-01
 P 1 1.00
     Exponent=  6.6442261530D-01 Coefficients=  1.0000000000D+00
 P 1 1.00
     Exponent=  2.7099770070D-01 Coefficients=  1.0000000000D+00
 P 1 1.00
     Exponent=  1.0688749984D-01 Coefficients=  1.0000000000D+00
 D 1 1.00
     Exponent=  2.8370000000D+00 Coefficients=  1.0000000000D+00
 D 1 1.00
     Exponent=  9.6800000000D-01 Coefficients=  1.0000000000D+00
 D 1 1.00
     Exponent=  3.3500000000D-01 Coefficients=  1.0000000000D+00
 D 1 1.00
     Exponent=  1.0825280010D-01 Coefficients=  1.0000000000D+00
 F 1 1.00
     Exponent=  2.0270000000D+00 Coefficients=  1.0000000000D+00
 F 1 1.00
     Exponent=  6.8500000000D-01 Coefficients=  1.0000000000D+00
 G 1 1.00
     Exponent=  1.4270000000D+00 Coefficients=  1.0000000000D+00
 ****
 Ernie: Thresh=  0.10000D-02 Tol=  0.10000D-05 Strict=F.
 There are    89 symmetry adapted cartesian basis functions of A1  symmetry.
 There are    21 symmetry adapted cartesian basis functions of A2  symmetry.
 There are    43 symmetry adapted cartesian basis functions of B1  symmetry.
 There are    43 symmetry adapted cartesian basis functions of B2  symmetry.
 There are    68 symmetry adapted basis functions of A1  symmetry.
 There are    19 symmetry adapted basis functions of A2  symmetry.
 There are    36 symmetry adapted basis functions of B1  symmetry.
 There are    36 symmetry adapted basis functions of B2  symmetry.
   159 basis functions,   239 primitive gaussians,   196 cartesian basis functions
     7 alpha electrons        7 beta electrons
       nuclear repulsion energy        24.1972838306 Hartrees.
 IExCor= 4336 DFT=T Ex+Corr=M062X ExCW=0 ScaHFX=  0.540000
 ScaDFX=  1.000000  1.000000  1.000000  1.000000 ScalE2=  1.000000  1.000000
 IRadAn=      5 IRanWt=     -1 IRanGd=            0 ICorTp=0 IEmpDi=  4
 NAtoms=    3 NActive=    3 NUniq=    3 SFac= 1.00D+00 NAtFMM=   60 NAOKFM=F Big=F
 Integral buffers will be    131072 words long.
 Raffenetti 2 integral format.
 Two-electron integral symmetry is turned on.
 Leave Link  301 at Sun Apr 18 03:15:36 2021, MaxMem=   104857600 cpu:              10.7 elap:               0.2
 (Enter /s/ls4/users/knvvv/bin/g16sse/l302.exe)
 NPDir=0 NMtPBC=     1 NCelOv=     1 NCel=       1 NClECP=     1 NCelD=      1
         NCelK=      1 NCelE2=     1 NClLst=     1 CellRange=     0.0.
 One-electron integrals computed using PRISM.
 One-electron integral symmetry used in STVInt
 PrsmSu:  requested number of processors reduced to:   4 ShMem   1 Linda.
 PrsmSu:  requested number of processors reduced to:  21 ShMem   1 Linda.
 NBasis=   159 RedAO= T EigKep=  3.20D-05  NBF=    68    19    36    36
 NBsUse=   159 1.00D-06 EigRej= -1.00D+00 NBFU=    68    19    36    36
 Precomputing XC quadrature grid using
 IXCGrd= 4 IRadAn=           5 IRanWt=          -1 IRanGd=           0 AccXCQ= 0.00D+00.
 Generated NRdTot=       0 NPtTot=           0 NUsed=           0 NTot=          32
 NSgBfM=   196   196   196   196   196 MxSgAt=     3 MxSgA2=     3.
 Leave Link  302 at Sun Apr 18 03:15:42 2021, MaxMem=   104857600 cpu:             246.8 elap:               5.4
 (Enter /s/ls4/users/knvvv/bin/g16sse/l303.exe)
 DipDrv:  MaxL=1.
 Leave Link  303 at Sun Apr 18 03:15:42 2021, MaxMem=   104857600 cpu:               6.1 elap:               0.2
 (Enter /s/ls4/users/knvvv/bin/g16sse/l401.exe)
 SCF N**3 symmetry information disabled.
 ExpMin= 4.50D-02 ExpMax= 9.07D+04 ExpMxC= 8.76D+02 IAcc=3 IRadAn=         5 AccDes= 0.00D+00
 Harris functional with IExCor= 1009 and IRadAn=       5 diagonalized for initial guess.
 HarFok:  IExCor= 1009 AccDes= 0.00D+00 IRadAn=         5 IDoV= 1 UseB2=F ITyADJ=14
 ICtDFT=  3500011 ScaDFX=  1.000000  1.000000  1.000000  1.000000
 FoFCou: FMM=F IPFlag=           0 FMFlag=      100000 FMFlg1=           0
         NFxFlg=           0 DoJE=T BraDBF=F KetDBF=T FulRan=T
         wScrn=  0.000000 ICntrl=       500 IOpCl=  0 I1Cent=   200000004 NGrid=           0
         NMat0=    1 NMatS0=      1 NMatT0=    0 NMatD0=    1 NMtDS0=    0 NMtDT0=    0
 Petite list used in FoFCou.
 CoulSu:  requested number of processors reduced to:  21 ShMem   1 Linda.
 CoulSu:  requested number of processors reduced to:  21 ShMem   1 Linda.
 CoulSu:  requested number of processors reduced to:  21 ShMem   1 Linda.
 CoulSu:  requested number of processors reduced to:  21 ShMem   1 Linda.
 Harris En= -93.3534821217101    
 JPrj=0 DoOrth=F DoCkMO=F.
 Initial guess orbital symmetries:
       Occupied  (SG) (SG) (SG) (SG) (PI) (PI) (SG)
       Virtual   (PI) (PI) (SG) (SG) (SG) (PI) (PI) (PI) (PI) (DLTA)
                 (DLTA) (SG) (PI) (PI) (SG) (SG) (SG) (DLTA) (DLTA)
                 (SG) (PI) (PI) (SG) (PI) (PI) (DLTA) (DLTA) (SG)
                 (PI) (PI) (SG) (SG) (PI) (PI) (SG) (DLTA) (DLTA)
                 (SG) (PI) (PI) (SG) (PI) (PI) (SG) (PI) (PI) (SG)
                 (PHI) (PHI) (DLTA) (DLTA) (SG) (DLTA) (DLTA) (PI)
                 (PI) (SG) (DLTA) (DLTA) (SG) (PI) (PI) (SG) (PI)
                 (PI) (PHI) (PHI) (SG) (PI) (PI) (DLTA) (DLTA)
                 (PI) (PI) (SG) (DLTA) (DLTA) (SG) (PI) (PI) (SG)
                 (PI) (PI) (SG) (?A) (?A) (PHI) (PHI) (PI) (PI)
                 (SG) (DLTA) (DLTA) (PI) (PI) (SG) (PHI) (PHI)
                 (DLTA) (DLTA) (PHI) (PHI) (SG) (DLTA) (DLTA) (PI)
                 (PI) (SG) (?A) (?A) (DLTA) (DLTA) (PI) (PI) (SG)
                 (SG) (SG) (PHI) (PHI) (PI) (PI) (DLTA) (DLTA)
                 (PI) (PI) (SG) (PHI) (PHI) (DLTA) (DLTA) (PI)
                 (PI) (DLTA) (DLTA) (SG) (PI) (PI) (SG) (DLTA)
                 (DLTA) (SG) (PI) (PI) (SG) (SG) (PI) (PI) (SG)
                 (SG) (SG) (SG) (SG)
 The electronic state of the initial guess is 1-SG.
 Leave Link  401 at Sun Apr 18 03:15:45 2021, MaxMem=   104857600 cpu:             132.0 elap:               3.0
 (Enter /s/ls4/users/knvvv/bin/g16sse/l502.exe)
 Integral symmetry usage will be decided dynamically.
 Closed shell SCF:
 Using DIIS extrapolation, IDIIS=  1040.
 NGot=   104857600 LenX=   104768511 LenY=   104729654
 Requested convergence on RMS density matrix=1.00D-08 within 128 cycles.
 Requested convergence on MAX density matrix=1.00D-06.
 Requested convergence on             energy=1.00D-06.
 No special actions if energy rises.
 Fock matrices will be formed incrementally for  20 cycles.

 Cycle   1  Pass 1  IDiag  1:
 FoFJK:  IHMeth= 1 ICntrl=       0 DoSepK=F KAlg= 0 I1Cent=           0 FoldK=F
 IRaf= 990000000 NMat=       1 IRICut=       1 DoRegI=T DoRafI=F ISym2E= 1 IDoP0=0 IntGTp=1.
 FoFCou: FMM=F IPFlag=           0 FMFlag=      100000 FMFlg1=           0
         NFxFlg=           0 DoJE=F BraDBF=F KetDBF=F FulRan=T
         wScrn=  0.000000 ICntrl=         0 IOpCl=  0 I1Cent=           0 NGrid=           0
         NMat0=    1 NMatS0=      1 NMatT0=    0 NMatD0=    1 NMtDS0=    0 NMtDT0=    0
 Petite list used in FoFCou.
 CoulSu:  requested number of processors reduced to:  21 ShMem   1 Linda.
 E= -93.3691416852107    
 DIIS: error= 2.88D-02 at cycle   1 NSaved=   1.
 NSaved= 1 IEnMin= 1 EnMin= -93.3691416852107     IErMin= 1 ErrMin= 2.88D-02
 ErrMax= 2.88D-02  0.00D+00 EMaxC= 1.00D-01 BMatC= 9.46D-02 BMatP= 9.46D-02
 IDIUse=3 WtCom= 7.12D-01 WtEn= 2.88D-01
 Coeff-Com:  0.100D+01
 Coeff-En:   0.100D+01
 Coeff:      0.100D+01
 Gap=     0.453 Goal=   None    Shift=    0.000
 GapD=    0.453 DampG=2.000 DampE=0.500 DampFc=1.0000 IDamp=-1.
 RMSDP=1.83D-03 MaxDP=1.23D-01              OVMax= 9.32D-02

 Cycle   2  Pass 1  IDiag  1:
 RMSU=  1.70D-03    CP:  9.14D-01
 CoulSu:  requested number of processors reduced to:  21 ShMem   1 Linda.
 E= -93.3932244498969     Delta-E=       -0.024082764686 Rises=F Damp=F
 DIIS: error= 1.70D-02 at cycle   2 NSaved=   2.
 NSaved= 2 IEnMin= 2 EnMin= -93.3932244498969     IErMin= 2 ErrMin= 1.70D-02
 ErrMax= 1.70D-02  0.00D+00 EMaxC= 1.00D-01 BMatC= 2.26D-02 BMatP= 9.46D-02
 IDIUse=3 WtCom= 8.30D-01 WtEn= 1.70D-01
 Coeff-Com:  0.300D+00 0.700D+00
 Coeff-En:   0.217D+00 0.783D+00
 Coeff:      0.286D+00 0.714D+00
 Gap=     0.418 Goal=   None    Shift=    0.000
 RMSDP=9.12D-04 MaxDP=2.48D-02 DE=-2.41D-02 OVMax= 4.71D-02

 Cycle   3  Pass 1  IDiag  1:
 RMSU=  7.71D-04    CP:  9.31D-01  7.24D-01
 CoulSu:  requested number of processors reduced to:  21 ShMem   1 Linda.
 E= -93.4095855183691     Delta-E=       -0.016361068472 Rises=F Damp=F
 DIIS: error= 5.21D-03 at cycle   3 NSaved=   3.
 NSaved= 3 IEnMin= 3 EnMin= -93.4095855183691     IErMin= 3 ErrMin= 5.21D-03
 ErrMax= 5.21D-03  0.00D+00 EMaxC= 1.00D-01 BMatC= 2.28D-03 BMatP= 2.26D-02
 IDIUse=3 WtCom= 9.48D-01 WtEn= 5.21D-02
 Coeff-Com:  0.228D-01 0.247D+00 0.730D+00
 Coeff-En:   0.000D+00 0.000D+00 0.100D+01
 Coeff:      0.216D-01 0.234D+00 0.745D+00
 Gap=     0.419 Goal=   None    Shift=    0.000
 RMSDP=2.16D-04 MaxDP=7.11D-03 DE=-1.64D-02 OVMax= 1.86D-02

 Cycle   4  Pass 1  IDiag  1:
 RMSU=  1.60D-04    CP:  9.21D-01  7.87D-01  9.32D-01
 CoulSu:  requested number of processors reduced to:  21 ShMem   1 Linda.
 E= -93.4106544852999     Delta-E=       -0.001068966931 Rises=F Damp=F
 DIIS: error= 3.29D-03 at cycle   4 NSaved=   4.
 NSaved= 4 IEnMin= 4 EnMin= -93.4106544852999     IErMin= 4 ErrMin= 3.29D-03
 ErrMax= 3.29D-03  0.00D+00 EMaxC= 1.00D-01 BMatC= 7.13D-04 BMatP= 2.28D-03
 IDIUse=3 WtCom= 9.67D-01 WtEn= 3.29D-02
 Coeff-Com:  0.135D-03 0.112D+00 0.465D+00 0.423D+00
 Coeff-En:   0.000D+00 0.000D+00 0.238D+00 0.762D+00
 Coeff:      0.131D-03 0.109D+00 0.458D+00 0.434D+00
 Gap=     0.410 Goal=   None    Shift=    0.000
 RMSDP=6.88D-05 MaxDP=1.98D-03 DE=-1.07D-03 OVMax= 8.94D-03

 Cycle   5  Pass 1  IDiag  1:
 RMSU=  3.84D-05    CP:  9.21D-01  8.02D-01  9.33D-01  6.80D-01
 CoulSu:  requested number of processors reduced to:  21 ShMem   1 Linda.
 E= -93.4112560944358     Delta-E=       -0.000601609136 Rises=F Damp=F
 DIIS: error= 1.45D-04 at cycle   5 NSaved=   5.
 NSaved= 5 IEnMin= 5 EnMin= -93.4112560944358     IErMin= 5 ErrMin= 1.45D-04
 ErrMax= 1.45D-04  0.00D+00 EMaxC= 1.00D-01 BMatC= 1.14D-06 BMatP= 7.13D-04
 IDIUse=3 WtCom= 9.99D-01 WtEn= 1.45D-03
 Coeff-Com: -0.875D-03-0.992D-02-0.347D-01 0.722D-02 0.104D+01
 Coeff-En:   0.000D+00 0.000D+00 0.000D+00 0.000D+00 0.100D+01
 Coeff:     -0.874D-03-0.990D-02-0.347D-01 0.721D-02 0.104D+01
 Gap=     0.411 Goal=   None    Shift=    0.000
 RMSDP=2.89D-05 MaxDP=1.50D-03 DE=-6.02D-04 OVMax= 4.02D-04

 Cycle   6  Pass 1  IDiag  1:
 RMSU=  1.49D-05    CP:  9.20D-01  8.10D-01  9.51D-01  7.38D-01  1.17D+00
 CoulSu:  requested number of processors reduced to:  21 ShMem   1 Linda.
 E= -93.4112570844509     Delta-E=       -0.000000990015 Rises=F Damp=F
 DIIS: error= 1.70D-05 at cycle   6 NSaved=   6.
 NSaved= 6 IEnMin= 6 EnMin= -93.4112570844509     IErMin= 6 ErrMin= 1.70D-05
 ErrMax= 1.70D-05  0.00D+00 EMaxC= 1.00D-01 BMatC= 7.54D-09 BMatP= 1.14D-06
 IDIUse=1 WtCom= 1.00D+00 WtEn= 0.00D+00
 Coeff-Com:  0.124D-04-0.131D-02-0.447D-02-0.158D-02 0.230D-01 0.984D+00
 Coeff:      0.124D-04-0.131D-02-0.447D-02-0.158D-02 0.230D-01 0.984D+00
 Gap=     0.411 Goal=   None    Shift=    0.000
 RMSDP=4.78D-06 MaxDP=2.69D-04 DE=-9.90D-07 OVMax= 7.93D-05

 Cycle   7  Pass 1  IDiag  1:
 RMSU=  1.71D-06    CP:  9.19D-01  8.10D-01  9.52D-01  7.41D-01  1.18D+00
                    CP:  1.25D+00
 CoulSu:  requested number of processors reduced to:  21 ShMem   1 Linda.
 E= -93.4112570952614     Delta-E=       -0.000000010810 Rises=F Damp=F
 DIIS: error= 2.04D-06 at cycle   7 NSaved=   7.
 NSaved= 7 IEnMin= 7 EnMin= -93.4112570952614     IErMin= 7 ErrMin= 2.04D-06
 ErrMax= 2.04D-06  0.00D+00 EMaxC= 1.00D-01 BMatC= 2.67D-10 BMatP= 7.54D-09
 IDIUse=1 WtCom= 1.00D+00 WtEn= 0.00D+00
 Coeff-Com:  0.288D-04 0.159D-03 0.545D-03-0.371D-03-0.281D-01 0.491D-01
 Coeff-Com:  0.979D+00
 Coeff:      0.288D-04 0.159D-03 0.545D-03-0.371D-03-0.281D-01 0.491D-01
 Coeff:      0.979D+00
 Gap=     0.411 Goal=   None    Shift=    0.000
 RMSDP=1.08D-06 MaxDP=6.21D-05 DE=-1.08D-08 OVMax= 1.26D-05

 Cycle   8  Pass 1  IDiag  1:
 RMSU=  1.41D-07    CP:  9.19D-01  8.10D-01  9.52D-01  7.41D-01  1.19D+00
                    CP:  1.32D+00  1.15D+00
 CoulSu:  requested number of processors reduced to:  21 ShMem   1 Linda.
 E= -93.4112570956414     Delta-E=       -0.000000000380 Rises=F Damp=F
 DIIS: error= 3.36D-07 at cycle   8 NSaved=   8.
 NSaved= 8 IEnMin= 8 EnMin= -93.4112570956414     IErMin= 8 ErrMin= 3.36D-07
 ErrMax= 3.36D-07  0.00D+00 EMaxC= 1.00D-01 BMatC= 8.25D-12 BMatP= 2.67D-10
 IDIUse=1 WtCom= 1.00D+00 WtEn= 0.00D+00
 Coeff-Com: -0.134D-05 0.158D-04 0.326D-04 0.403D-04-0.106D-02-0.146D-01
 Coeff-Com: -0.427D-01 0.106D+01
 Coeff:     -0.134D-05 0.158D-04 0.326D-04 0.403D-04-0.106D-02-0.146D-01
 Coeff:     -0.427D-01 0.106D+01
 Gap=     0.411 Goal=   None    Shift=    0.000
 RMSDP=1.72D-07 MaxDP=9.99D-06 DE=-3.80D-10 OVMax= 2.51D-06

 Cycle   9  Pass 1  IDiag  1:
 RMSU=  2.14D-08    CP:  9.19D-01  8.10D-01  9.52D-01  7.41D-01  1.19D+00
                    CP:  1.33D+00  1.16D+00  1.20D+00
 CoulSu:  requested number of processors reduced to:  21 ShMem   1 Linda.
 E= -93.4112570956530     Delta-E=       -0.000000000012 Rises=F Damp=F
 DIIS: error= 5.16D-08 at cycle   9 NSaved=   9.
 NSaved= 9 IEnMin= 9 EnMin= -93.4112570956530     IErMin= 9 ErrMin= 5.16D-08
 ErrMax= 5.16D-08  0.00D+00 EMaxC= 1.00D-01 BMatC= 2.28D-13 BMatP= 8.25D-12
 IDIUse=1 WtCom= 1.00D+00 WtEn= 0.00D+00
 Coeff-Com: -0.182D-07-0.304D-05-0.626D-05 0.163D-04 0.324D-03 0.272D-02
 Coeff-Com: -0.824D-02-0.150D+00 0.116D+01
 Coeff:     -0.182D-07-0.304D-05-0.626D-05 0.163D-04 0.324D-03 0.272D-02
 Coeff:     -0.824D-02-0.150D+00 0.116D+01
 Gap=     0.411 Goal=   None    Shift=    0.000
 RMSDP=9.19D-09 MaxDP=2.90D-07 DE=-1.16D-11 OVMax= 2.32D-07

 SCF Done:  E(RM062X) =  -93.4112570957     A.U. after    9 cycles
            NFock=  9  Conv=0.92D-08     -V/T= 2.0040
 KE= 9.304329247441D+01 PE=-2.662295061710D+02 EE= 5.557767277032D+01
 Leave Link  502 at Sun Apr 18 03:17:04 2021, MaxMem=   104857600 cpu:            3564.0 elap:              79.1
 (Enter /s/ls4/users/knvvv/bin/g16sse/l601.exe)
 Copying SCF densities to generalized density rwf, IOpCl= 0 IROHF=0.

 **********************************************************************

            Population analysis using the SCF density.

 **********************************************************************

 Orbital symmetries:
       Occupied  (SG) (SG) (SG) (SG) (PI) (PI) (SG)
       Virtual   (SG) (PI) (PI) (SG) (PI) (PI) (SG) (PI) (PI) (DLTA)
                 (DLTA) (SG) (SG) (PI) (PI) (SG) (SG) (DLTA) (DLTA)
                 (SG) (PI) (PI) (SG) (PI) (PI) (SG) (DLTA) (DLTA)
                 (PI) (PI) (SG) (SG) (PI) (PI) (SG) (DLTA) (DLTA)
                 (PI) (PI) (SG) (SG) (PI) (PI) (SG) (PI) (PI) (SG)
                 (PHI) (PHI) (DLTA) (DLTA) (SG) (DLTA) (DLTA) (PI)
                 (PI) (DLTA) (DLTA) (SG) (SG) (PI) (PI) (SG) (PI)
                 (PI) (PHI) (PHI) (SG) (PI) (PI) (DLTA) (DLTA)
                 (PI) (PI) (SG) (DLTA) (DLTA) (SG) (SG) (PI) (PI)
                 (PI) (PI) (SG) (?A) (?A) (PHI) (PHI) (PI) (PI)
                 (SG) (DLTA) (DLTA) (PI) (PI) (PHI) (PHI) (SG)
                 (DLTA) (DLTA) (PHI) (PHI) (SG) (DLTA) (DLTA) (PI)
                 (PI) (SG) (?A) (?A) (DLTA) (DLTA) (PI) (PI) (SG)
                 (SG) (SG) (PHI) (PHI) (PI) (PI) (DLTA) (DLTA)
                 (PI) (PI) (SG) (PHI) (PHI) (DLTA) (DLTA) (PI)
                 (PI) (DLTA) (DLTA) (SG) (PI) (PI) (SG) (DLTA)
                 (DLTA) (SG) (PI) (PI) (SG) (SG) (PI) (PI) (SG)
                 (SG) (SG) (SG) (SG)
 The electronic state is 1-SG.
 Alpha  occ. eigenvalues --  -14.79568 -10.60143  -1.06359  -0.75194  -0.45385
 Alpha  occ. eigenvalues --   -0.45385  -0.39277
 Alpha virt. eigenvalues --    0.01800   0.04537   0.04537   0.04559   0.10049
 Alpha virt. eigenvalues --    0.10049   0.10085   0.18319   0.18319   0.18950
 Alpha virt. eigenvalues --    0.18950   0.20840   0.23301   0.23840   0.23840
 Alpha virt. eigenvalues --    0.25516   0.31473   0.33911   0.33911   0.38936
 Alpha virt. eigenvalues --    0.43957   0.43957   0.50490   0.52000   0.52000
 Alpha virt. eigenvalues --    0.62535   0.67046   0.67046   0.72374   0.72374
 Alpha virt. eigenvalues --    0.76280   0.81500   0.85342   0.85342   0.97153
 Alpha virt. eigenvalues --    1.05724   1.05724   1.07816   1.07816   1.09561
 Alpha virt. eigenvalues --    1.21267   1.30743   1.30743   1.38928   1.44863
 Alpha virt. eigenvalues --    1.44863   1.60799   1.70180   1.70180   1.78590
 Alpha virt. eigenvalues --    1.78590   1.85249   1.98664   1.98665   2.07915
 Alpha virt. eigenvalues --    2.07915   2.23879   2.23879   2.25926   2.34284
 Alpha virt. eigenvalues --    2.36396   2.36396   2.45732   2.49692   2.49692
 Alpha virt. eigenvalues --    2.50958   2.50958   2.67348   2.78364   2.78364
 Alpha virt. eigenvalues --    2.98937   2.98937   3.05261   3.05261   3.14350
 Alpha virt. eigenvalues --    3.31025   3.31025   3.38621   3.73440   3.77110
 Alpha virt. eigenvalues --    3.77110   3.96746   3.96746   4.13533   4.75122
 Alpha virt. eigenvalues --    4.75122   4.78995   4.78995   4.98047   4.98047
 Alpha virt. eigenvalues --    5.00319   5.43260   5.43261   5.56702   5.56702
 Alpha virt. eigenvalues --    5.63636   5.63636   5.74359   5.81173   5.81174
 Alpha virt. eigenvalues --    5.85127   5.85127   5.92112   6.00325   6.00327
 Alpha virt. eigenvalues --    6.30764   6.30764   6.58041   6.72515   6.72515
 Alpha virt. eigenvalues --    6.87421   6.87422   6.98294   6.98294   7.02667
 Alpha virt. eigenvalues --    7.22453   7.28777   7.35062   7.35062   7.50414
 Alpha virt. eigenvalues --    7.50414   7.56186   7.56186   7.72231   7.72231
 Alpha virt. eigenvalues --    8.03877   8.30471   8.30471   8.52825   8.52826
 Alpha virt. eigenvalues --    8.62198   8.62198   8.75068   8.75074   8.77573
 Alpha virt. eigenvalues --    8.90268   8.90268   9.08096   9.59245   9.59245
 Alpha virt. eigenvalues --   10.22335  10.55500  10.55500  12.02772  12.46244
 Alpha virt. eigenvalues --   12.46758  12.46758  14.95977  28.14978  38.63432
 Alpha virt. eigenvalues --  145.57433 196.29531
          Condensed to atoms (all electrons):
               1          2          3
     1  C    5.308675   0.457862   0.018617
     2  N    0.457862   6.981819   0.258940
     3  H    0.018617   0.258940   0.238667
 Mulliken charges:
               1
     1  C    0.214846
     2  N   -0.698622
     3  H    0.483776
 Sum of Mulliken charges =   0.00000
 Mulliken charges with hydrogens summed into heavy atoms:
               1
     1  C    0.214846
     2  N   -0.214846
 Electronic spatial extent (au):  <R**2>=             49.2816
 Charge=              0.0000 electrons
 Dipole moment (field-independent basis, Debye):
    X=              0.0000    Y=             -0.0000    Z=              2.9935  Tot=              2.9935
 Quadrupole moment (field-independent basis, Debye-Ang):
   XX=            -12.1170   YY=            -12.1170   ZZ=            -10.3297
   XY=              0.0000   XZ=              0.0000   YZ=             -0.0000
 Traceless Quadrupole moment (field-independent basis, Debye-Ang):
   XX=             -0.5958   YY=             -0.5958   ZZ=              1.1915
   XY=              0.0000   XZ=              0.0000   YZ=             -0.0000
 Octapole moment (field-independent basis, Debye-Ang**2):
  XXX=              0.0000  YYY=             -0.0000  ZZZ=             14.3490  XYY=              0.0000
  XXY=             -0.0000  XXZ=              1.4967  XZZ=              0.0000  YZZ=             -0.0000
  YYZ=              1.4967  XYZ=             -0.0000
 Hexadecapole moment (field-independent basis, Debye-Ang**3):
 XXXX=            -12.9121 YYYY=            -12.9121 ZZZZ=            -42.4569 XXXY=              0.0000
 XXXZ=              0.0000 YYYX=              0.0000 YYYZ=             -0.0000 ZZZX=              0.0000
 ZZZY=             -0.0000 XXYY=             -4.3040 XXZZ=            -10.0473 YYZZ=            -10.0473
 XXYZ=             -0.0000 YYXZ=              0.0000 ZZXY=              0.0000
 N-N= 2.419728383058D+01 E-N=-2.662295056237D+02  KE= 9.304329247441D+01
 PrsmSu:  requested number of processors reduced to:  21 ShMem   1 Linda.
 No NMR shielding tensors so no spin-rotation constants.
 Leave Link  601 at Sun Apr 18 03:17:07 2021, MaxMem=   104857600 cpu:             117.0 elap:               2.6
 (Enter /s/ls4/users/knvvv/bin/g16sse/l801.exe)
 DoSCS=F DFT=T ScalE2(SS,OS)=  1.000000  1.000000
 Range of M.O.s used for correlation:     1   159
 NBasis=   159 NAE=     7 NBE=     7 NFC=     0 NFV=     0
 NROrb=    159 NOA=     7 NOB=     7 NVA=   152 NVB=   152

 **** Warning!!: The largest alpha MO coefficient is  0.47850402D+02

 Leave Link  801 at Sun Apr 18 03:17:07 2021, MaxMem=   104857600 cpu:               3.5 elap:               0.1
 (Enter /s/ls4/users/knvvv/bin/g16sse/l914.exe)
 RHF ground state
 Doing stability rather than CIS.
 Two-electron integrals replicated using symmetry.
 MDV=   104857600 DFT=T DoStab=T Mixed=T DoRPA=F DoScal=F NonHer=F
 Making orbital integer symmetry assigments:
 Orbital symmetries:
       Occupied  (SG) (SG) (SG) (SG) (PI) (PI) (SG)
       Virtual   (SG) (PI) (PI) (SG) (PI) (PI) (SG) (PI) (PI) (DLTA)
                 (DLTA) (SG) (SG) (PI) (PI) (SG) (SG) (DLTA) (DLTA)
                 (SG) (PI) (PI) (SG) (PI) (PI) (SG) (DLTA) (DLTA)
                 (PI) (PI) (SG) (SG) (PI) (PI) (SG) (DLTA) (DLTA)
                 (PI) (PI) (SG) (SG) (PI) (PI) (SG) (PI) (PI) (SG)
                 (PHI) (PHI) (DLTA) (DLTA) (SG) (DLTA) (DLTA) (PI)
                 (PI) (DLTA) (DLTA) (SG) (SG) (PI) (PI) (SG) (PI)
                 (PI) (PHI) (PHI) (SG) (PI) (PI) (DLTA) (DLTA)
                 (PI) (PI) (SG) (DLTA) (DLTA) (SG) (SG) (PI) (PI)
                 (PI) (PI) (SG) (?A) (?A) (PHI) (PHI) (PI) (PI)
                 (SG) (DLTA) (DLTA) (PI) (PI) (PHI) (PHI) (SG)
                 (DLTA) (DLTA) (PHI) (PHI) (SG) (DLTA) (DLTA) (PI)
                 (PI) (SG) (?A) (?A) (DLTA) (DLTA) (PI) (PI) (SG)
                 (SG) (SG) (PHI) (PHI) (PI) (PI) (DLTA) (DLTA)
                 (PI) (PI) (SG) (PHI) (PHI) (DLTA) (DLTA) (PI)
                 (PI) (DLTA) (DLTA) (SG) (PI) (PI) (SG) (DLTA)
                 (DLTA) (SG) (PI) (PI) (SG) (SG) (PI) (PI) (SG)
                 (SG) (SG) (SG) (SG)
    24 initial guesses have been made.
 Convergence on wavefunction:    0.001000000000000
 Davidson Disk Diagonalization:  ConvIn= 1.00D-03 SkipCon=T Conv= 1.00D-03.
 Max sub-space:  2000 roots to seek:    24 dimension of matrix:         2128
 Iteration     1 Dimension    24 NMult     0 NNew     24
 Estimated number of processors is:   20
 CISAX will form     1 AO SS matrices at one time.
 NMat=     1 NSing=     1 JSym2X= 2.
 FoFJK:  IHMeth= 1 ICntrl=       0 DoSepK=F KAlg= 0 I1Cent=           0 FoldK=F
 IRaf= 990000000 NMat=       1 IRICut=       1 DoRegI=T DoRafI=F ISym2E= 2 IDoP0=0 IntGTp=1.
 FoFCou: FMM=F IPFlag=           0 FMFlag=      100000 FMFlg1=           0
         NFxFlg=           0 DoJE=F BraDBF=F KetDBF=F FulRan=T
         wScrn=  0.000000 ICntrl=         0 IOpCl=  0 I1Cent=           0 NGrid=           0
         NMat0=    1 NMatS0=      1 NMatT0=    0 NMatD0=    1 NMtDS0=    0 NMtDT0=    0
 Integrals replicated using symmetry in FoFCou.
 CoulSu:  requested number of processors reduced to:  21 ShMem   1 Linda.
 NMat=     1 NSing=     1 JSym2X= 2.
 CoulSu:  requested number of processors reduced to:  21 ShMem   1 Linda.
 NMat=     1 NSing=     1 JSym2X= 2.
 CoulSu:  requested number of processors reduced to:  21 ShMem   1 Linda.
 NMat=     1 NSing=     1 JSym2X= 2.
 CoulSu:  requested number of processors reduced to:  21 ShMem   1 Linda.
 NMat=     1 NSing=     1 JSym2X= 2.
 CoulSu:  requested number of processors reduced to:  21 ShMem   1 Linda.
 NMat=     1 NSing=     1 JSym2X= 2.
 CoulSu:  requested number of processors reduced to:  21 ShMem   1 Linda.
 NMat=     1 NSing=     1 JSym2X= 2.
 CoulSu:  requested number of processors reduced to:  21 ShMem   1 Linda.
 NMat=     1 NSing=     1 JSym2X= 2.
 CoulSu:  requested number of processors reduced to:  21 ShMem   1 Linda.
 NMat=     1 NSing=     1 JSym2X= 2.
 CoulSu:  requested number of processors reduced to:  21 ShMem   1 Linda.
 NMat=     1 NSing=     1 JSym2X= 2.
 CoulSu:  requested number of processors reduced to:  21 ShMem   1 Linda.
 NMat=     1 NSing=     1 JSym2X= 2.
 CoulSu:  requested number of processors reduced to:  21 ShMem   1 Linda.
 NMat=     1 NSing=     1 JSym2X= 2.
 CoulSu:  requested number of processors reduced to:  21 ShMem   1 Linda.
 NMat=     1 NSing=     0 JSym2X= 2.
 CoulSu:  requested number of processors reduced to:  21 ShMem   1 Linda.
 NMat=     1 NSing=     0 JSym2X= 2.
 CoulSu:  requested number of processors reduced to:  21 ShMem   1 Linda.
 NMat=     1 NSing=     0 JSym2X= 2.
 CoulSu:  requested number of processors reduced to:  21 ShMem   1 Linda.
 NMat=     1 NSing=     0 JSym2X= 2.
 CoulSu:  requested number of processors reduced to:  21 ShMem   1 Linda.
 NMat=     1 NSing=     0 JSym2X= 2.
 CoulSu:  requested number of processors reduced to:  21 ShMem   1 Linda.
 NMat=     1 NSing=     0 JSym2X= 2.
 CoulSu:  requested number of processors reduced to:  21 ShMem   1 Linda.
 NMat=     1 NSing=     0 JSym2X= 2.
 CoulSu:  requested number of processors reduced to:  21 ShMem   1 Linda.
 NMat=     1 NSing=     0 JSym2X= 2.
 CoulSu:  requested number of processors reduced to:  21 ShMem   1 Linda.
 NMat=     1 NSing=     0 JSym2X= 2.
 CoulSu:  requested number of processors reduced to:  21 ShMem   1 Linda.
 NMat=     1 NSing=     0 JSym2X= 2.
 CoulSu:  requested number of processors reduced to:  21 ShMem   1 Linda.
 NMat=     1 NSing=     0 JSym2X= 2.
 CoulSu:  requested number of processors reduced to:  21 ShMem   1 Linda.
 NMat=     1 NSing=     0 JSym2X= 2.
 CoulSu:  requested number of processors reduced to:  21 ShMem   1 Linda.
 New state      1 was old state      6
 Excitation Energies [eV] at current iteration:
 Root      1 :     6.387442405813840
 Root      2 :     6.387442405814286
 Root      3 :     7.072254940649571
 Root      4 :     8.129909035408248
 Root      5 :     8.723827555386706
 Root      6 :     8.876011088855126
 Root      7 :     9.151950569874616
 Root      8 :     9.185268239857061
 Root      9 :     9.249453700279732
 Root     10 :     9.432797462641293
 Root     11 :     9.948288809170860
 Root     12 :    10.016324701591390
 Root     13 :    10.016324701603740
 Root     14 :    10.104311984950970
 Root     15 :    10.104311984961920
 Root     16 :    10.476000348538810
 Root     17 :    10.476000348538890
 Root     18 :    11.005890337544410
 Root     19 :    11.065283929747330
 Root     20 :    11.065283929753810
 Root     21 :    11.137486513978340
 Root     22 :    11.137486513997590
 Root     23 :    11.300020572051080
 Root     24 :    22.578175745043380
 Iteration     2 Dimension    48 NMult    24 NNew     24
 Estimated number of processors is:   20
 CISAX will form     1 AO SS matrices at one time.
 NMat=     1 NSing=     1 JSym2X= 2.
 CoulSu:  requested number of processors reduced to:  21 ShMem   1 Linda.
 NMat=     1 NSing=     1 JSym2X= 2.
 CoulSu:  requested number of processors reduced to:  21 ShMem   1 Linda.
 NMat=     1 NSing=     1 JSym2X= 2.
 CoulSu:  requested number of processors reduced to:  21 ShMem   1 Linda.
 NMat=     1 NSing=     1 JSym2X= 2.
 CoulSu:  requested number of processors reduced to:  21 ShMem   1 Linda.
 NMat=     1 NSing=     1 JSym2X= 2.
 CoulSu:  requested number of processors reduced to:  21 ShMem   1 Linda.
 NMat=     1 NSing=     1 JSym2X= 2.
 CoulSu:  requested number of processors reduced to:  21 ShMem   1 Linda.
 NMat=     1 NSing=     1 JSym2X= 2.
 CoulSu:  requested number of processors reduced to:  21 ShMem   1 Linda.
 NMat=     1 NSing=     1 JSym2X= 2.
 CoulSu:  requested number of processors reduced to:  21 ShMem   1 Linda.
 NMat=     1 NSing=     1 JSym2X= 2.
 CoulSu:  requested number of processors reduced to:  21 ShMem   1 Linda.
 NMat=     1 NSing=     1 JSym2X= 2.
 CoulSu:  requested number of processors reduced to:  21 ShMem   1 Linda.
 NMat=     1 NSing=     1 JSym2X= 2.
 CoulSu:  requested number of processors reduced to:  21 ShMem   1 Linda.
 NMat=     1 NSing=     1 JSym2X= 2.
 CoulSu:  requested number of processors reduced to:  21 ShMem   1 Linda.
 NMat=     1 NSing=     0 JSym2X= 2.
 CoulSu:  requested number of processors reduced to:  21 ShMem   1 Linda.
 NMat=     1 NSing=     0 JSym2X= 2.
 CoulSu:  requested number of processors reduced to:  21 ShMem   1 Linda.
 NMat=     1 NSing=     0 JSym2X= 2.
 CoulSu:  requested number of processors reduced to:  21 ShMem   1 Linda.
 NMat=     1 NSing=     0 JSym2X= 2.
 CoulSu:  requested number of processors reduced to:  21 ShMem   1 Linda.
 NMat=     1 NSing=     0 JSym2X= 2.
 CoulSu:  requested number of processors reduced to:  21 ShMem   1 Linda.
 NMat=     1 NSing=     0 JSym2X= 2.
 CoulSu:  requested number of processors reduced to:  21 ShMem   1 Linda.
 NMat=     1 NSing=     0 JSym2X= 2.
 CoulSu:  requested number of processors reduced to:  21 ShMem   1 Linda.
 NMat=     1 NSing=     0 JSym2X= 2.
 CoulSu:  requested number of processors reduced to:  21 ShMem   1 Linda.
 NMat=     1 NSing=     0 JSym2X= 2.
 CoulSu:  requested number of processors reduced to:  21 ShMem   1 Linda.
 NMat=     1 NSing=     0 JSym2X= 2.
 CoulSu:  requested number of processors reduced to:  21 ShMem   1 Linda.
 NMat=     1 NSing=     0 JSym2X= 2.
 CoulSu:  requested number of processors reduced to:  21 ShMem   1 Linda.
 NMat=     1 NSing=     0 JSym2X= 2.
 CoulSu:  requested number of processors reduced to:  21 ShMem   1 Linda.
 Root      1 not converged, maximum delta is    0.177814842645314
 Excitation Energies [eV] at current iteration:
 Root      1 :     5.544476818651533   Change is   -0.842965587162307
 Root      2 :     5.544476818653914   Change is   -0.842965587160372
 Root      3 :     5.559069946330855   Change is   -1.513184994318715
 Root      4 :     7.417249691690045   Change is   -0.712659343718204
 Root      5 :     7.878705064357645   Change is   -0.845122491029061
 Root      6 :     8.677372456572161   Change is   -0.198638632282964
 Root      7 :     8.863295344652993   Change is   -0.321972895204068
 Root      8 :     8.966128898460273   Change is   -0.283324801819460
 Root      9 :     9.036289839495700   Change is   -0.115660730378916
 Root     10 :     9.238570844274745   Change is   -0.194226618366548
 Root     11 :     9.327273712441013   Change is   -1.148726636097878
 Root     12 :     9.327273712441212   Change is   -1.148726636097594
 Root     13 :     9.677004664844006   Change is   -0.339320036747386
 Root     14 :     9.677004664850601   Change is   -0.339320036753136
 Root     15 :     9.773710960231636   Change is   -0.174577848939224
 Root     16 :     9.993939877085781   Change is   -0.110372107865193
 Root     17 :     9.993939877090751   Change is   -0.110372107871169
 Root     18 :    10.824665890809250   Change is   -0.181224446735157
 Root     19 :    10.899364428338680   Change is   -0.165919501408649
 Root     20 :    10.899364428341940   Change is   -0.165919501411877
 Root     21 :    10.981068981638090   Change is   -0.156417532340247
 Root     22 :    10.981068981650730   Change is   -0.156417532346860
 Root     23 :    11.066754335684250   Change is   -0.233266236366834
 Root     24 :    15.472853933850020
 Iteration     3 Dimension    54 NMult    48 NNew      6
 Estimated number of processors is:   20
 CISAX will form     1 AO SS matrices at one time.
 NMat=     1 NSing=     1 JSym2X= 2.
 CoulSu:  requested number of processors reduced to:  21 ShMem   1 Linda.
 NMat=     1 NSing=     1 JSym2X= 2.
 CoulSu:  requested number of processors reduced to:  21 ShMem   1 Linda.
 NMat=     1 NSing=     1 JSym2X= 2.
 CoulSu:  requested number of processors reduced to:  21 ShMem   1 Linda.
 NMat=     1 NSing=     0 JSym2X= 2.
 CoulSu:  requested number of processors reduced to:  21 ShMem   1 Linda.
 NMat=     1 NSing=     0 JSym2X= 2.
 CoulSu:  requested number of processors reduced to:  21 ShMem   1 Linda.
 NMat=     1 NSing=     0 JSym2X= 2.
 CoulSu:  requested number of processors reduced to:  21 ShMem   1 Linda.
 New state      1 was old state      3
 Root      1 not converged, maximum delta is    0.015062974401606
 Excitation Energies [eV] at current iteration:
 Root      1 :     5.504260085830814   Change is   -0.054809860500041
 Root      2 :     5.530924147190687   Change is   -0.013552671460846
 Root      3 :     5.530924147192851   Change is   -0.013552671461062
 Root      4 :     8.848773624266151   Change is   -0.014521720386841
 Root      5 :     8.948851892960761   Change is   -0.017277005499511
 Root      6 :     9.022640383289406   Change is   -0.013649456206295
 Iteration     4 Dimension    60 NMult    54 NNew      6
 Estimated number of processors is:   20
 CISAX will form     1 AO SS matrices at one time.
 NMat=     1 NSing=     1 JSym2X= 2.
 CoulSu:  requested number of processors reduced to:  21 ShMem   1 Linda.
 NMat=     1 NSing=     1 JSym2X= 2.
 CoulSu:  requested number of processors reduced to:  21 ShMem   1 Linda.
 NMat=     1 NSing=     1 JSym2X= 2.
 CoulSu:  requested number of processors reduced to:  21 ShMem   1 Linda.
 NMat=     1 NSing=     0 JSym2X= 2.
 CoulSu:  requested number of processors reduced to:  21 ShMem   1 Linda.
 NMat=     1 NSing=     0 JSym2X= 2.
 CoulSu:  requested number of processors reduced to:  21 ShMem   1 Linda.
 NMat=     1 NSing=     0 JSym2X= 2.
 CoulSu:  requested number of processors reduced to:  21 ShMem   1 Linda.
 Root      1 not converged, maximum delta is    0.004932579089793
 Excitation Energies [eV] at current iteration:
 Root      1 :     5.501831558404517   Change is   -0.002428527426296
 Root      2 :     5.530556337157646   Change is   -0.000367810033041
 Root      3 :     5.530556337159794   Change is   -0.000367810033058
 Root      4 :     8.846982819405104   Change is   -0.001790804861047
 Root      5 :     8.916145835613804   Change is   -0.032706057346958
 Root      6 :     9.021956350159391   Change is   -0.000684033130015
 Iteration     5 Dimension    66 NMult    60 NNew      6
 Estimated number of processors is:   20
 CISAX will form     1 AO SS matrices at one time.
 NMat=     1 NSing=     1 JSym2X= 2.
 CoulSu:  requested number of processors reduced to:  21 ShMem   1 Linda.
 NMat=     1 NSing=     1 JSym2X= 2.
 CoulSu:  requested number of processors reduced to:  21 ShMem   1 Linda.
 NMat=     1 NSing=     1 JSym2X= 2.
 CoulSu:  requested number of processors reduced to:  21 ShMem   1 Linda.
 NMat=     1 NSing=     0 JSym2X= 2.
 CoulSu:  requested number of processors reduced to:  21 ShMem   1 Linda.
 NMat=     1 NSing=     0 JSym2X= 2.
 CoulSu:  requested number of processors reduced to:  21 ShMem   1 Linda.
 NMat=     1 NSing=     0 JSym2X= 2.
 CoulSu:  requested number of processors reduced to:  21 ShMem   1 Linda.
 Root      1 not converged, maximum delta is    0.002230189465732
 Excitation Energies [eV] at current iteration:
 Root      1 :     5.501683656470909   Change is   -0.000147901933608
 Root      2 :     5.530541952646852   Change is   -0.000014384510794
 Root      3 :     5.530541952649011   Change is   -0.000014384510783
 Root      4 :     8.846879600527714   Change is   -0.000103218877392
 Root      5 :     8.858156344966076   Change is   -0.057989490647728
 Root      6 :     9.021934999990789   Change is   -0.000021350168602
 Iteration     6 Dimension    72 NMult    66 NNew      6
 Estimated number of processors is:   20
 CISAX will form     1 AO SS matrices at one time.
 NMat=     1 NSing=     1 JSym2X= 2.
 CoulSu:  requested number of processors reduced to:  21 ShMem   1 Linda.
 NMat=     1 NSing=     1 JSym2X= 2.
 CoulSu:  requested number of processors reduced to:  21 ShMem   1 Linda.
 NMat=     1 NSing=     1 JSym2X= 2.
 CoulSu:  requested number of processors reduced to:  21 ShMem   1 Linda.
 NMat=     1 NSing=     0 JSym2X= 2.
 CoulSu:  requested number of processors reduced to:  21 ShMem   1 Linda.
 NMat=     1 NSing=     0 JSym2X= 2.
 CoulSu:  requested number of processors reduced to:  21 ShMem   1 Linda.
 NMat=     1 NSing=     0 JSym2X= 2.
 CoulSu:  requested number of processors reduced to:  21 ShMem   1 Linda.
 Root      1 has converged.
 Excitation Energies [eV] at current iteration:
 Root      1 :     5.501673322393651   Change is   -0.000010334077259
 Root      2 :     5.530541647455824   Change is   -0.000000305191028
 Root      3 :     5.530541647457998   Change is   -0.000000305191013
 Root      4 :     8.846858230745470   Change is   -0.000021369782243
 Root      5 :     8.847424523662733   Change is   -0.010731821303342
 Root      6 :     9.021933493246536   Change is   -0.000001506744253
 Convergence achieved on expansion vectors.
 ***********************************************************************
 Stability analysis using <AA,BB:AA,BB> singles matrix:
 ***********************************************************************
 1PDM for each excited state written to RWF  633
 Ground to excited state transition densities written to RWF  633

 Eigenvectors of the stability matrix:
 
 Excited state symmetry could not be determined.
 Eigenvector   1:      Triplet-?Sym  Eigenvalue= 0.2021828  <S**2>=2.000
       5 ->  9         0.45556
       5 -> 16        -0.11551
       6 -> 10         0.45556
       6 -> 15        -0.11550
 The wavefunction is stable under the perturbations considered.
 Leave Link  914 at Sun Apr 18 03:19:22 2021, MaxMem=   104857600 cpu:            5249.4 elap:             135.0
 (Enter /s/ls4/users/knvvv/bin/g16sse/l508.exe)
 The wavefunction is already stable.
 Leave Link  508 at Sun Apr 18 03:19:22 2021, MaxMem=   104857600 cpu:               2.2 elap:               0.1
 (Enter /s/ls4/users/knvvv/bin/g16sse/l601.exe)
 Copying SCF densities to generalized density rwf, IOpCl= 0 IROHF=0.

 **********************************************************************

            Population analysis using the SCF density.

 **********************************************************************

 Orbital symmetries:
       Occupied  (SG) (SG) (SG) (SG) (PI) (PI) (SG)
       Virtual   (SG) (PI) (PI) (SG) (PI) (PI) (SG) (PI) (PI) (DLTA)
                 (DLTA) (SG) (SG) (PI) (PI) (SG) (SG) (DLTA) (DLTA)
                 (SG) (PI) (PI) (SG) (PI) (PI) (SG) (DLTA) (DLTA)
                 (PI) (PI) (SG) (SG) (PI) (PI) (SG) (DLTA) (DLTA)
                 (PI) (PI) (SG) (SG) (PI) (PI) (SG) (PI) (PI) (SG)
                 (PHI) (PHI) (DLTA) (DLTA) (SG) (DLTA) (DLTA) (PI)
                 (PI) (DLTA) (DLTA) (SG) (SG) (PI) (PI) (SG) (PI)
                 (PI) (PHI) (PHI) (SG) (PI) (PI) (DLTA) (DLTA)
                 (PI) (PI) (SG) (DLTA) (DLTA) (SG) (SG) (PI) (PI)
                 (PI) (PI) (SG) (?A) (?A) (PHI) (PHI) (PI) (PI)
                 (SG) (DLTA) (DLTA) (PI) (PI) (PHI) (PHI) (SG)
                 (DLTA) (DLTA) (PHI) (PHI) (SG) (DLTA) (DLTA) (PI)
                 (PI) (SG) (?A) (?A) (DLTA) (DLTA) (PI) (PI) (SG)
                 (SG) (SG) (PHI) (PHI) (PI) (PI) (DLTA) (DLTA)
                 (PI) (PI) (SG) (PHI) (PHI) (DLTA) (DLTA) (PI)
                 (PI) (DLTA) (DLTA) (SG) (PI) (PI) (SG) (DLTA)
                 (DLTA) (SG) (PI) (PI) (SG) (SG) (PI) (PI) (SG)
                 (SG) (SG) (SG) (SG)
 The electronic state is 1-SG.
 Alpha  occ. eigenvalues --  -14.79568 -10.60143  -1.06359  -0.75194  -0.45385
 Alpha  occ. eigenvalues --   -0.45385  -0.39277
 Alpha virt. eigenvalues --    0.01800   0.04537   0.04537   0.04559   0.10049
 Alpha virt. eigenvalues --    0.10049   0.10085   0.18319   0.18319   0.18950
 Alpha virt. eigenvalues --    0.18950   0.20840   0.23301   0.23840   0.23840
 Alpha virt. eigenvalues --    0.25516   0.31473   0.33911   0.33911   0.38936
 Alpha virt. eigenvalues --    0.43957   0.43957   0.50490   0.52000   0.52000
 Alpha virt. eigenvalues --    0.62535   0.67046   0.67046   0.72374   0.72374
 Alpha virt. eigenvalues --    0.76280   0.81500   0.85342   0.85342   0.97153
 Alpha virt. eigenvalues --    1.05724   1.05724   1.07816   1.07816   1.09561
 Alpha virt. eigenvalues --    1.21267   1.30743   1.30743   1.38928   1.44863
 Alpha virt. eigenvalues --    1.44863   1.60799   1.70180   1.70180   1.78590
 Alpha virt. eigenvalues --    1.78590   1.85249   1.98664   1.98665   2.07915
 Alpha virt. eigenvalues --    2.07915   2.23879   2.23879   2.25926   2.34284
 Alpha virt. eigenvalues --    2.36396   2.36396   2.45732   2.49692   2.49692
 Alpha virt. eigenvalues --    2.50958   2.50958   2.67348   2.78364   2.78364
 Alpha virt. eigenvalues --    2.98937   2.98937   3.05261   3.05261   3.14350
 Alpha virt. eigenvalues --    3.31025   3.31025   3.38621   3.73440   3.77110
 Alpha virt. eigenvalues --    3.77110   3.96746   3.96746   4.13533   4.75122
 Alpha virt. eigenvalues --    4.75122   4.78995   4.78995   4.98047   4.98047
 Alpha virt. eigenvalues --    5.00319   5.43260   5.43261   5.56702   5.56702
 Alpha virt. eigenvalues --    5.63636   5.63636   5.74359   5.81173   5.81174
 Alpha virt. eigenvalues --    5.85127   5.85127   5.92112   6.00325   6.00327
 Alpha virt. eigenvalues --    6.30764   6.30764   6.58041   6.72515   6.72515
 Alpha virt. eigenvalues --    6.87421   6.87422   6.98294   6.98294   7.02667
 Alpha virt. eigenvalues --    7.22453   7.28777   7.35062   7.35062   7.50414
 Alpha virt. eigenvalues --    7.50414   7.56186   7.56186   7.72231   7.72231
 Alpha virt. eigenvalues --    8.03877   8.30471   8.30471   8.52825   8.52826
 Alpha virt. eigenvalues --    8.62198   8.62198   8.75068   8.75074   8.77573
 Alpha virt. eigenvalues --    8.90268   8.90268   9.08096   9.59245   9.59245
 Alpha virt. eigenvalues --   10.22335  10.55500  10.55500  12.02772  12.46244
 Alpha virt. eigenvalues --   12.46758  12.46758  14.95977  28.14978  38.63432
 Alpha virt. eigenvalues --  145.57433 196.29531
          Condensed to atoms (all electrons):
               1          2          3
     1  C    5.308675   0.457862   0.018617
     2  N    0.457862   6.981819   0.258940
     3  H    0.018617   0.258940   0.238667
 Mulliken charges:
               1
     1  C    0.214846
     2  N   -0.698622
     3  H    0.483776
 Sum of Mulliken charges =   0.00000
 Mulliken charges with hydrogens summed into heavy atoms:
               1
     1  C    0.214846
     2  N   -0.214846
 Electronic spatial extent (au):  <R**2>=             49.2816
 Charge=              0.0000 electrons
 Dipole moment (field-independent basis, Debye):
    X=              0.0000    Y=             -0.0000    Z=              2.9935  Tot=              2.9935
 Quadrupole moment (field-independent basis, Debye-Ang):
   XX=            -12.1170   YY=            -12.1170   ZZ=            -10.3297
   XY=              0.0000   XZ=              0.0000   YZ=             -0.0000
 Traceless Quadrupole moment (field-independent basis, Debye-Ang):
   XX=             -0.5958   YY=             -0.5958   ZZ=              1.1915
   XY=              0.0000   XZ=              0.0000   YZ=             -0.0000
 Octapole moment (field-independent basis, Debye-Ang**2):
  XXX=              0.0000  YYY=             -0.0000  ZZZ=             14.3490  XYY=              0.0000
  XXY=             -0.0000  XXZ=              1.4967  XZZ=              0.0000  YZZ=             -0.0000
  YYZ=              1.4967  XYZ=             -0.0000
 Hexadecapole moment (field-independent basis, Debye-Ang**3):
 XXXX=            -12.9121 YYYY=            -12.9121 ZZZZ=            -42.4569 XXXY=              0.0000
 XXXZ=              0.0000 YYYX=              0.0000 YYYZ=             -0.0000 ZZZX=              0.0000
 ZZZY=             -0.0000 XXYY=             -4.3040 XXZZ=            -10.0473 YYZZ=            -10.0473
 XXYZ=             -0.0000 YYXZ=              0.0000 ZZXY=              0.0000
 N-N= 2.419728383058D+01 E-N=-2.662295056237D+02  KE= 9.304329247441D+01
 PrsmSu:  requested number of processors reduced to:  21 ShMem   1 Linda.
 No NMR shielding tensors so no spin-rotation constants.
 Leave Link  601 at Sun Apr 18 03:19:25 2021, MaxMem=   104857600 cpu:             119.3 elap:               2.7
 (Enter /s/ls4/users/knvvv/bin/g16sse/l9999.exe)

 Test job not archived.
 1\1\GINC-N178\Stability\RM062X\Gen\C1H1N1\KNVVV\18-Apr-2021\0\\#P M062
 X/GEN Integral=UltraFineGrid SCF=NoSymm Stable=(RExt, Opt) IOp(1/33=1)
 \\Database calculations.\\0,1\C,0,0.,0.,-0.7392552717\N,0,0.,0.,0.4300
 82428\H,0,0.,0.,1.4249525179\\Version=ES64L-G16RevA.03\State=1-SG\HF=-
 93.4112571\RMSD=9.188e-09\Dipole=0.,0.,1.1777426\Quadrupole=-0.4429373
 ,-0.4429373,0.8858746,0.,0.,0.\PG=C*V [C*(C1N1H1)]\\@


 This summer one third of the nation will be ill-housed
 ill-nourished and ill-clad. Only they call it a vacation.
 -- Jonas Salk
 Job cpu time:       0 days  2 hours 38 minutes  0.1 seconds.
 Elapsed time:       0 days  0 hours  3 minutes 49.1 seconds.
 File lengths (MBytes):  RWF=     84 Int=      0 D2E=      0 Chk=      4 Scr=      1
 Normal termination of Gaussian 16 at Sun Apr 18 03:19:25 2021.
