 Entering Gaussian System, Link 0=/s/ls4/users/knvvv/bin/g16sse/g16
 Input=data/database/M062X--def2-QZVP--SIE4x4_h2o.gjf
 Output=data/database/M062X--def2-QZVP--SIE4x4_h2o.log
 Initial command:
 /s/ls4/users/knvvv/bin/g16sse/l1.exe "/s/ls4/users/knvvv/bin/scratch/Gau-45128.inp" -scrdir="/s/ls4/users/knvvv/bin/scratch/"
 Entering Link 1 = /s/ls4/users/knvvv/bin/g16sse/l1.exe PID=     45129.
  
 Copyright (c) 1988,1990,1992,1993,1995,1998,2003,2009,2016,
            Gaussian, Inc.  All Rights Reserved.
  
 This is part of the Gaussian(R) 16 program.  It is based on
 the Gaussian(R) 09 system (copyright 2009, Gaussian, Inc.),
 the Gaussian(R) 03 system (copyright 2003, Gaussian, Inc.),
 the Gaussian(R) 98 system (copyright 1998, Gaussian, Inc.),
 the Gaussian(R) 94 system (copyright 1995, Gaussian, Inc.),
 the Gaussian 92(TM) system (copyright 1992, Gaussian, Inc.),
 the Gaussian 90(TM) system (copyright 1990, Gaussian, Inc.),
 the Gaussian 88(TM) system (copyright 1988, Gaussian, Inc.),
 the Gaussian 86(TM) system (copyright 1986, Carnegie Mellon
 University), and the Gaussian 82(TM) system (copyright 1983,
 Carnegie Mellon University). Gaussian is a federally registered
 trademark of Gaussian, Inc.
  
 This software contains proprietary and confidential information,
 including trade secrets, belonging to Gaussian, Inc.
  
 This software is provided under written license and may be
 used, copied, transmitted, or stored only in accord with that
 written license.
  
 The following legend is applicable only to US Government
 contracts under FAR:
  
                    RESTRICTED RIGHTS LEGEND
  
 Use, reproduction and disclosure by the US Government is
 subject to restrictions as set forth in subparagraphs (a)
 and (c) of the Commercial Computer Software - Restricted
 Rights clause in FAR 52.227-19.
  
 Gaussian, Inc.
 340 Quinnipiac St., Bldg. 40, Wallingford CT 06492
  
  
 ---------------------------------------------------------------
 Warning -- This program may not be used in any manner that
 competes with the business of Gaussian, Inc. or will provide
 assistance to any competitor of Gaussian, Inc.  The licensee
 of this program is prohibited from giving any competitor of
 Gaussian, Inc. access to this program.  By using this program,
 the user acknowledges that Gaussian, Inc. is engaged in the
 business of creating and licensing software in the field of
 computational chemistry and represents and warrants to the
 licensee that it is not a competitor of Gaussian, Inc. and that
 it will not use this program in any manner prohibited above.
 ---------------------------------------------------------------
  

 Cite this work as:
 Gaussian 16, Revision A.03,
 M. J. Frisch, G. W. Trucks, H. B. Schlegel, G. E. Scuseria, 
 M. A. Robb, J. R. Cheeseman, G. Scalmani, V. Barone, 
 G. A. Petersson, H. Nakatsuji, X. Li, M. Caricato, A. V. Marenich, 
 J. Bloino, B. G. Janesko, R. Gomperts, B. Mennucci, H. P. Hratchian, 
 J. V. Ortiz, A. F. Izmaylov, J. L. Sonnenberg, D. Williams-Young, 
 F. Ding, F. Lipparini, F. Egidi, J. Goings, B. Peng, A. Petrone, 
 T. Henderson, D. Ranasinghe, V. G. Zakrzewski, J. Gao, N. Rega, 
 G. Zheng, W. Liang, M. Hada, M. Ehara, K. Toyota, R. Fukuda, 
 J. Hasegawa, M. Ishida, T. Nakajima, Y. Honda, O. Kitao, H. Nakai, 
 T. Vreven, K. Throssell, J. A. Montgomery, Jr., J. E. Peralta, 
 F. Ogliaro, M. J. Bearpark, J. J. Heyd, E. N. Brothers, K. N. Kudin, 
 V. N. Staroverov, T. A. Keith, R. Kobayashi, J. Normand, 
 K. Raghavachari, A. P. Rendell, J. C. Burant, S. S. Iyengar, 
 J. Tomasi, M. Cossi, J. M. Millam, M. Klene, C. Adamo, R. Cammi, 
 J. W. Ochterski, R. L. Martin, K. Morokuma, O. Farkas, 
 J. B. Foresman, and D. J. Fox, Gaussian, Inc., Wallingford CT, 2016.
 
 ******************************************
 Gaussian 16:  ES64L-G16RevA.03 25-Dec-2016
                18-Apr-2021 
 ******************************************
 %RWF=temp12_82384,70GB
 %nprocshared=48
 Will use up to   48 processors via shared memory.
 Default route: MaxDisk=80GB
 ----------------------------------------------------------------------
 #P M062X/Def2QZVP Integral=UltraFineGrid SCF=NoSymm Stable=(RExt, Opt)
  IOp(1/33=1)
 ----------------------------------------------------------------------
 1/33=1,38=1,172=1/1;
 2/12=2,17=6,18=5,40=1/2;
 3/5=45,7=101,11=2,25=1,30=1,74=-55,75=-5/1,2,3;
 4/9=2/1;
 5/5=2,38=5/2;
 6/7=2,8=2,9=2,10=2,28=1/1;
 8/6=1,10=90,11=11/1;
 9/8=-3,42=1,46=1/14;
 5/5=2,8=3,17=40,38=5/8(-2);
 6/7=2,8=2,9=2,10=2,28=1/1;
 99/5=1,9=1/99;
 Leave Link    1 at Sun Apr 18 04:28:30 2021, MaxMem=           0 cpu:               8.6 elap:               0.2
 (Enter /s/ls4/users/knvvv/bin/g16sse/l101.exe)
 ONIOM data not found on unit 2.
 ----------------------
 Database calculations.
 ----------------------
 TstMul:  ICh=     0
 TstMul:  Mul=     1
 TstMul:  ICh=     0
 TstMul:  Mul=     1
 Symbolic Z-matrix:
 Charge =  0 Multiplicity = 1
 O                     0.        0.        0.39394 
 H                    -0.75504   0.       -0.19697 
 H                     0.75504   0.       -0.19697 
 
 RdStrC is calling ZToCFu for IStruc=1 NZ=     3.
 PrtBox:  NBox=     1 Levels=  1 BoxLen=    8.00 SMaxX=        2.85
          Shift=            1.426817            0.000000            0.372218
 Box      1 Number                   0 centers from      1 to      3:
 After GenITR:
 ITRead=  0  0  0
 MicOpt= -1 -1 -1
 ITRead=  0  0  0
 MicOpt= -1 -1 -1
 NAtoms=      3 NQM=        3 NQMF=       0 NMMI=      0 NMMIF=      0
                NMic=       0 NMicF=      0.
                    Isotopes and Nuclear Properties:
 (Nuclear quadrupole moments (NQMom) in fm**2, nuclear magnetic moments (NMagM)
  in nuclear magnetons)

  Atom         1           2           3
 IAtWgt=          16           1           1
 AtmWgt=  15.9949146   1.0078250   1.0078250
 NucSpn=           0           1           1
 AtZEff=  -0.0000000  -0.0000000  -0.0000000
 NQMom=    0.0000000   0.0000000   0.0000000
 NMagM=    0.0000000   2.7928460   2.7928460
 AtZNuc=   8.0000000   1.0000000   1.0000000
 No MM parameters found.
 Leave Link  101 at Sun Apr 18 04:28:31 2021, MaxMem=   104857600 cpu:               7.0 elap:               0.2
 (Enter /s/ls4/users/knvvv/bin/g16sse/l202.exe)
                          Input orientation:                          
 ---------------------------------------------------------------------
 Center     Atomic      Atomic             Coordinates (Angstroms)
 Number     Number       Type             X           Y           Z
 ---------------------------------------------------------------------
      1          8           0        0.000000    0.000000    0.393939
      2          1           0       -0.755039    0.000000   -0.196970
      3          1           0        0.755039    0.000000   -0.196970
 ---------------------------------------------------------------------
                    Distance matrix (angstroms):
                    1          2          3
     1  O    0.000000
     2  H    0.958779   0.000000
     3  H    0.958779   1.510078   0.000000
 Stoichiometry    H2O
 Framework group  C2V[C2(O),SGV(H2)]
 Deg. of freedom     2
 Full point group                 C2V     NOp   4
 Largest Abelian subgroup         C2V     NOp   4
 Largest concise Abelian subgroup C2      NOp   2
                         Standard orientation:                         
 ---------------------------------------------------------------------
 Center     Atomic      Atomic             Coordinates (Angstroms)
 Number     Number       Type             X           Y           Z
 ---------------------------------------------------------------------
      1          8           0        0.000000    0.000000    0.118182
      2          1           0       -0.000000    0.755039   -0.472727
      3          1           0       -0.000000   -0.755039   -0.472727
 ---------------------------------------------------------------------
 Rotational constants (GHZ):         808.5500377         439.8084248         284.8597812
 Leave Link  202 at Sun Apr 18 04:28:31 2021, MaxMem=   104857600 cpu:              10.9 elap:               0.3
 (Enter /s/ls4/users/knvvv/bin/g16sse/l301.exe)
 Standard basis: def2QZVP (5D, 7F)
 Ernie: Thresh=  0.10000D-02 Tol=  0.10000D-05 Strict=F.
 There are    56 symmetry adapted cartesian basis functions of A1  symmetry.
 There are    19 symmetry adapted cartesian basis functions of A2  symmetry.
 There are    27 symmetry adapted cartesian basis functions of B1  symmetry.
 There are    40 symmetry adapted cartesian basis functions of B2  symmetry.
 There are    44 symmetry adapted basis functions of A1  symmetry.
 There are    17 symmetry adapted basis functions of A2  symmetry.
 There are    23 symmetry adapted basis functions of B1  symmetry.
 There are    33 symmetry adapted basis functions of B2  symmetry.
   117 basis functions,   168 primitive gaussians,   142 cartesian basis functions
     5 alpha electrons        5 beta electrons
       nuclear repulsion energy         9.1812856977 Hartrees.
 IExCor= 4336 DFT=T Ex+Corr=M062X ExCW=0 ScaHFX=  0.540000
 ScaDFX=  1.000000  1.000000  1.000000  1.000000 ScalE2=  1.000000  1.000000
 IRadAn=      5 IRanWt=     -1 IRanGd=            0 ICorTp=0 IEmpDi=  4
 NAtoms=    3 NActive=    3 NUniq=    2 SFac= 2.25D+00 NAtFMM=   60 NAOKFM=F Big=F
 Integral buffers will be    131072 words long.
 Raffenetti 2 integral format.
 Two-electron integral symmetry is turned on.
 Leave Link  301 at Sun Apr 18 04:28:31 2021, MaxMem=   104857600 cpu:               5.6 elap:               0.1
 (Enter /s/ls4/users/knvvv/bin/g16sse/l302.exe)
 NPDir=0 NMtPBC=     1 NCelOv=     1 NCel=       1 NClECP=     1 NCelD=      1
         NCelK=      1 NCelE2=     1 NClLst=     1 CellRange=     0.0.
 One-electron integrals computed using PRISM.
 One-electron integral symmetry used in STVInt
 PrsmSu:  requested number of processors reduced to:   4 ShMem   1 Linda.
 PrsmSu:  requested number of processors reduced to:  21 ShMem   1 Linda.
   4 Symmetry operations used in ECPInt.
 ECPInt:  NShTT=     703 NPrTT=    1591 LenC2=     704 LenP2D=    1543.
 LDataN:  DoStor=T MaxTD1= 8 Len=  415
 Number of processors reduced to  42 by ecpmxn.
 NBasis=   117 RedAO= T EigKep=  3.11D-04  NBF=    44    17    23    33
 NBsUse=   117 1.00D-06 EigRej= -1.00D+00 NBFU=    44    17    23    33
 Precomputing XC quadrature grid using
 IXCGrd= 4 IRadAn=           5 IRanWt=          -1 IRanGd=           0 AccXCQ= 0.00D+00.
 Generated NRdTot=       0 NPtTot=           0 NUsed=           0 NTot=          32
 NSgBfM=   142   142   142   142   142 MxSgAt=     3 MxSgA2=     3.
 Leave Link  302 at Sun Apr 18 04:28:36 2021, MaxMem=   104857600 cpu:             216.1 elap:               4.7
 (Enter /s/ls4/users/knvvv/bin/g16sse/l303.exe)
 DipDrv:  MaxL=1.
 Leave Link  303 at Sun Apr 18 04:28:36 2021, MaxMem=   104857600 cpu:              25.1 elap:               0.6
 (Enter /s/ls4/users/knvvv/bin/g16sse/l401.exe)
 SCF N**3 symmetry information disabled.
 ExpMin= 8.03D-02 ExpMax= 1.17D+05 ExpMxC= 1.13D+03 IAcc=3 IRadAn=         5 AccDes= 0.00D+00
 Harris functional with IExCor= 1009 and IRadAn=       5 diagonalized for initial guess.
 HarFok:  IExCor= 1009 AccDes= 0.00D+00 IRadAn=         5 IDoV= 1 UseB2=F ITyADJ=14
 ICtDFT=  3500011 ScaDFX=  1.000000  1.000000  1.000000  1.000000
 FoFCou: FMM=F IPFlag=           0 FMFlag=      100000 FMFlg1=           0
         NFxFlg=           0 DoJE=T BraDBF=F KetDBF=T FulRan=T
         wScrn=  0.000000 ICntrl=       500 IOpCl=  0 I1Cent=   200000004 NGrid=           0
         NMat0=    1 NMatS0=      1 NMatT0=    0 NMatD0=    1 NMtDS0=    0 NMtDT0=    0
 Petite list used in FoFCou.
 CoulSu:  requested number of processors reduced to:  21 ShMem   1 Linda.
 CoulSu:  requested number of processors reduced to:  21 ShMem   1 Linda.
 CoulSu:  requested number of processors reduced to:  21 ShMem   1 Linda.
 CoulSu:  requested number of processors reduced to:  21 ShMem   1 Linda.
 Harris En= -76.4318520917724    
 JPrj=0 DoOrth=F DoCkMO=F.
 Initial guess orbital symmetries:
       Occupied  (A1) (A1) (B2) (A1) (B1)
       Virtual   (A1) (B2) (A1) (B2) (B1) (A1) (B2) (A1) (A2) (B1)
                 (A1) (B2) (A1) (B2) (B2) (A1) (A1) (B1) (A2) (B1)
                 (A1) (B2) (A1) (B1) (A1) (B2) (A2) (B2) (B1) (B2)
                 (A1) (A2) (A1) (B2) (A2) (B1) (A1) (B2) (A1) (B2)
                 (A1) (B1) (A2) (A1) (B1) (B2) (A1) (B1) (A1) (B2)
                 (A2) (A1) (B2) (B1) (B2) (A1) (B1) (A1) (A2) (B2)
                 (A2) (A1) (B2) (B1) (B2) (A2) (A1) (B1) (B2) (A1)
                 (B2) (A1) (B1) (B1) (A2) (A1) (B2) (A2) (A1) (B2)
                 (A1) (A2) (B2) (B1) (A1) (B2) (A1) (B1) (A1) (A2)
                 (B2) (A1) (A2) (B2) (B1) (B1) (A1) (B1) (A1) (B2)
                 (A2) (A1) (B2) (A1) (B2) (B1) (A2) (A1) (B2) (A1)
                 (A1) (A1)
 The electronic state of the initial guess is 1-A1.
 Leave Link  401 at Sun Apr 18 04:28:38 2021, MaxMem=   104857600 cpu:              96.7 elap:               2.2
 (Enter /s/ls4/users/knvvv/bin/g16sse/l502.exe)
 Keep R1 ints in memory in symmetry-blocked form, NReq=78080115.
 FoFCou: FMM=F IPFlag=           0 FMFlag=           0 FMFlg1=           0
         NFxFlg=           0 DoJE=F BraDBF=F KetDBF=F FulRan=T
         wScrn=  0.000000 ICntrl=       600 IOpCl=  0 I1Cent=           0 NGrid=           0
         NMat0=    1 NMatS0=   6903 NMatT0=    0 NMatD0=    1 NMtDS0=    0 NMtDT0=    0
 Petite list used in FoFCou.
 CoulSu:  requested number of processors reduced to:  17 ShMem   1 Linda.
 Closed shell SCF:
 Using DIIS extrapolation, IDIIS=  1040.
 NGot=   104857600 LenX=    98756703 LenY=    98736098
 Requested convergence on RMS density matrix=1.00D-08 within 128 cycles.
 Requested convergence on MAX density matrix=1.00D-06.
 Requested convergence on             energy=1.00D-06.
 No special actions if energy rises.
 Integral accuracy reduced to 1.0D-05 until final iterations.

 Cycle   1  Pass 0  IDiag  1:
 E= -76.3565942412972    
 DIIS: error= 4.92D-02 at cycle   1 NSaved=   1.
 NSaved= 1 IEnMin= 1 EnMin= -76.3565942412972     IErMin= 1 ErrMin= 4.92D-02
 ErrMax= 4.92D-02  0.00D+00 EMaxC= 1.00D-01 BMatC= 1.46D-01 BMatP= 1.46D-01
 IDIUse=3 WtCom= 5.08D-01 WtEn= 4.92D-01
 Coeff-Com:  0.100D+01
 Coeff-En:   0.100D+01
 Coeff:      0.100D+01
 Gap=     0.296 Goal=   None    Shift=    0.000
 GapD=    0.296 DampG=1.000 DampE=0.500 DampFc=0.5000 IDamp=-1.
 Damping current iteration by 5.00D-01
 RMSDP=2.21D-03 MaxDP=7.21D-02              OVMax= 1.65D-01

 Cycle   2  Pass 0  IDiag  1:
 E= -76.3907693409163     Delta-E=       -0.034175099619 Rises=F Damp=T
 DIIS: error= 2.24D-02 at cycle   2 NSaved=   2.
 NSaved= 2 IEnMin= 2 EnMin= -76.3907693409163     IErMin= 2 ErrMin= 2.24D-02
 ErrMax= 2.24D-02  0.00D+00 EMaxC= 1.00D-01 BMatC= 1.32D-02 BMatP= 1.46D-01
 IDIUse=3 WtCom= 7.76D-01 WtEn= 2.24D-01
 Coeff-Com:  0.480D-01 0.952D+00
 Coeff-En:   0.161D+00 0.839D+00
 Coeff:      0.734D-01 0.927D+00
 Gap=     0.436 Goal=   None    Shift=    0.000
 RMSDP=5.03D-04 MaxDP=1.05D-02 DE=-3.42D-02 OVMax= 9.50D-02

 Cycle   3  Pass 0  IDiag  1:
 E= -76.4360063191736     Delta-E=       -0.045236978257 Rises=F Damp=F
 DIIS: error= 2.54D-03 at cycle   3 NSaved=   3.
 NSaved= 3 IEnMin= 3 EnMin= -76.4360063191736     IErMin= 3 ErrMin= 2.54D-03
 ErrMax= 2.54D-03  0.00D+00 EMaxC= 1.00D-01 BMatC= 2.01D-04 BMatP= 1.32D-02
 IDIUse=3 WtCom= 9.75D-01 WtEn= 2.54D-02
 Coeff-Com: -0.314D-01 0.594D-01 0.972D+00
 Coeff-En:   0.000D+00 0.000D+00 0.100D+01
 Coeff:     -0.306D-01 0.579D-01 0.973D+00
 Gap=     0.439 Goal=   None    Shift=    0.000
 RMSDP=4.48D-05 MaxDP=2.31D-03 DE=-4.52D-02 OVMax= 3.77D-03

 Cycle   4  Pass 0  IDiag  1:
 E= -76.4361441986474     Delta-E=       -0.000137879474 Rises=F Damp=F
 DIIS: error= 1.74D-04 at cycle   4 NSaved=   4.
 NSaved= 4 IEnMin= 4 EnMin= -76.4361441986474     IErMin= 4 ErrMin= 1.74D-04
 ErrMax= 1.74D-04  0.00D+00 EMaxC= 1.00D-01 BMatC= 2.59D-06 BMatP= 2.01D-04
 IDIUse=3 WtCom= 9.98D-01 WtEn= 1.74D-03
 Coeff-Com:  0.171D-03-0.855D-03 0.588D-01 0.942D+00
 Coeff-En:   0.000D+00 0.000D+00 0.000D+00 0.100D+01
 Coeff:      0.170D-03-0.854D-03 0.587D-01 0.942D+00
 Gap=     0.439 Goal=   None    Shift=    0.000
 RMSDP=1.22D-05 MaxDP=2.69D-04 DE=-1.38D-04 OVMax= 4.84D-04

 Cycle   5  Pass 0  IDiag  1:
 E= -76.4361456615417     Delta-E=       -0.000001462894 Rises=F Damp=F
 DIIS: error= 3.82D-05 at cycle   5 NSaved=   5.
 NSaved= 5 IEnMin= 5 EnMin= -76.4361456615417     IErMin= 5 ErrMin= 3.82D-05
 ErrMax= 3.82D-05  0.00D+00 EMaxC= 1.00D-01 BMatC= 6.72D-08 BMatP= 2.59D-06
 IDIUse=1 WtCom= 1.00D+00 WtEn= 0.00D+00
 Coeff-Com:  0.131D-02-0.236D-02-0.298D-01 0.430D-01 0.988D+00
 Coeff:      0.131D-02-0.236D-02-0.298D-01 0.430D-01 0.988D+00
 Gap=     0.439 Goal=   None    Shift=    0.000
 RMSDP=2.80D-06 MaxDP=7.16D-05 DE=-1.46D-06 OVMax= 1.32D-04

 Initial convergence to 1.0D-05 achieved.  Increase integral accuracy.
 Cycle   6  Pass 1  IDiag  1:
 E= -76.4361668095292     Delta-E=       -0.000021147988 Rises=F Damp=F
 DIIS: error= 9.68D-05 at cycle   1 NSaved=   1.
 NSaved= 1 IEnMin= 1 EnMin= -76.4361668095292     IErMin= 1 ErrMin= 9.68D-05
 ErrMax= 9.68D-05  0.00D+00 EMaxC= 1.00D-01 BMatC= 3.45D-07 BMatP= 3.45D-07
 IDIUse=1 WtCom= 1.00D+00 WtEn= 0.00D+00
 Coeff-Com:  0.100D+01
 Coeff:      0.100D+01
 Gap=     0.439 Goal=   None    Shift=    0.000
 RMSDP=2.80D-06 MaxDP=7.16D-05 DE=-2.11D-05 OVMax= 5.27D-05

 Cycle   7  Pass 1  IDiag  1:
 E= -76.4361668965797     Delta-E=       -0.000000087050 Rises=F Damp=F
 DIIS: error= 6.06D-06 at cycle   2 NSaved=   2.
 NSaved= 2 IEnMin= 2 EnMin= -76.4361668965797     IErMin= 2 ErrMin= 6.06D-06
 ErrMax= 6.06D-06  0.00D+00 EMaxC= 1.00D-01 BMatC= 1.70D-09 BMatP= 3.45D-07
 IDIUse=1 WtCom= 1.00D+00 WtEn= 0.00D+00
 Coeff-Com: -0.601D-01 0.106D+01
 Coeff:     -0.601D-01 0.106D+01
 Gap=     0.439 Goal=   None    Shift=    0.000
 RMSDP=3.69D-07 MaxDP=1.13D-05 DE=-8.71D-08 OVMax= 1.02D-05

 Cycle   8  Pass 1  IDiag  1:
 E= -76.4361668973144     Delta-E=       -0.000000000735 Rises=F Damp=F
 DIIS: error= 1.08D-06 at cycle   3 NSaved=   3.
 NSaved= 3 IEnMin= 3 EnMin= -76.4361668973144     IErMin= 3 ErrMin= 1.08D-06
 ErrMax= 1.08D-06  0.00D+00 EMaxC= 1.00D-01 BMatC= 7.31D-11 BMatP= 1.70D-09
 IDIUse=1 WtCom= 1.00D+00 WtEn= 0.00D+00
 Coeff-Com: -0.114D-01 0.154D+00 0.857D+00
 Coeff:     -0.114D-01 0.154D+00 0.857D+00
 Gap=     0.439 Goal=   None    Shift=    0.000
 RMSDP=6.22D-08 MaxDP=2.53D-06 DE=-7.35D-10 OVMax= 4.40D-06

 Cycle   9  Pass 1  IDiag  1:
 E= -76.4361668973406     Delta-E=       -0.000000000026 Rises=F Damp=F
 DIIS: error= 9.71D-07 at cycle   4 NSaved=   4.
 NSaved= 4 IEnMin= 4 EnMin= -76.4361668973406     IErMin= 4 ErrMin= 9.71D-07
 ErrMax= 9.71D-07  0.00D+00 EMaxC= 1.00D-01 BMatC= 4.43D-11 BMatP= 7.31D-11
 IDIUse=1 WtCom= 1.00D+00 WtEn= 0.00D+00
 Coeff-Com:  0.362D-03-0.348D-01 0.437D+00 0.597D+00
 Coeff:      0.362D-03-0.348D-01 0.437D+00 0.597D+00
 Gap=     0.439 Goal=   None    Shift=    0.000
 RMSDP=2.46D-08 MaxDP=6.49D-07 DE=-2.62D-11 OVMax= 2.03D-06

 Cycle  10  Pass 1  IDiag  1:
 E= -76.4361668973692     Delta-E=       -0.000000000029 Rises=F Damp=F
 DIIS: error= 8.93D-08 at cycle   5 NSaved=   5.
 NSaved= 5 IEnMin= 5 EnMin= -76.4361668973692     IErMin= 5 ErrMin= 8.93D-08
 ErrMax= 8.93D-08  0.00D+00 EMaxC= 1.00D-01 BMatC= 4.12D-13 BMatP= 4.43D-11
 IDIUse=1 WtCom= 1.00D+00 WtEn= 0.00D+00
 Coeff-Com:  0.361D-03-0.202D-02-0.989D-01-0.322D-01 0.113D+01
 Coeff:      0.361D-03-0.202D-02-0.989D-01-0.322D-01 0.113D+01
 Gap=     0.439 Goal=   None    Shift=    0.000
 RMSDP=5.57D-09 MaxDP=1.51D-07 DE=-2.86D-11 OVMax= 5.90D-07

 SCF Done:  E(RM062X) =  -76.4361668974     A.U. after   10 cycles
            NFock= 10  Conv=0.56D-08     -V/T= 2.0031
 KE= 7.619725830694D+01 PE=-1.992236840112D+02 EE= 3.740897310918D+01
 Leave Link  502 at Sun Apr 18 04:29:17 2021, MaxMem=   104857600 cpu:            1808.1 elap:              38.9
 (Enter /s/ls4/users/knvvv/bin/g16sse/l601.exe)
 Copying SCF densities to generalized density rwf, IOpCl= 0 IROHF=0.

 **********************************************************************

            Population analysis using the SCF density.

 **********************************************************************

 Orbital symmetries:
       Occupied  (A1) (A1) (B2) (A1) (B1)
       Virtual   (A1) (B2) (A1) (B2) (B1) (A1) (B2) (A1) (A2) (B1)
                 (A1) (B2) (A1) (B2) (B2) (A1) (A1) (B1) (A2) (A1)
                 (B1) (B2) (A1) (B1) (A1) (B2) (A2) (B2) (B1) (A1)
                 (B2) (A2) (A1) (B2) (A2) (B1) (A1) (B2) (B2) (A1)
                 (A1) (B1) (A2) (A1) (B1) (B2) (A1) (B1) (A1) (B2)
                 (A2) (A1) (B2) (B1) (A1) (B2) (B1) (A1) (A2) (B2)
                 (A2) (A1) (B2) (B1) (B2) (A2) (A1) (B1) (B2) (A1)
                 (B2) (A1) (B1) (B1) (A1) (A2) (B2) (A2) (A1) (B2)
                 (A1) (A2) (B2) (B1) (A1) (B2) (A1) (B1) (A1) (A2)
                 (A1) (B2) (A2) (B2) (B1) (B1) (A1) (B1) (A1) (B2)
                 (A2) (A1) (B2) (B2) (A1) (B1) (A2) (A1) (B2) (A1)
                 (A1) (A1)
 The electronic state is 1-A1.
 Alpha  occ. eigenvalues --  -19.62716  -1.13613  -0.60849  -0.47697  -0.40238
 Alpha virt. eigenvalues --    0.03685   0.08498   0.26920   0.29573   0.30063
 Alpha virt. eigenvalues --    0.33852   0.41701   0.48227   0.54693   0.60088
 Alpha virt. eigenvalues --    0.62973   0.79264   0.91567   0.93643   1.01489
 Alpha virt. eigenvalues --    1.06011   1.29853   1.29929   1.31532   1.37920
 Alpha virt. eigenvalues --    1.40013   1.44900   1.79673   1.86901   1.96843
 Alpha virt. eigenvalues --    1.99685   2.08472   2.24387   2.26909   2.30519
 Alpha virt. eigenvalues --    2.31219   2.38365   2.49535   2.54706   2.61957
 Alpha virt. eigenvalues --    2.64395   2.81769   2.92635   3.10064   3.11294
 Alpha virt. eigenvalues --    3.20551   3.67108   3.79617   3.82315   3.84678
 Alpha virt. eigenvalues --    3.99903   4.06953   4.18323   4.19783   4.37639
 Alpha virt. eigenvalues --    4.56668   4.71581   4.74486   5.23520   5.28274
 Alpha virt. eigenvalues --    5.29876   5.59533   5.80054   5.85827   5.95231
 Alpha virt. eigenvalues --    6.31989   6.39581   6.64592   6.92254   6.95790
 Alpha virt. eigenvalues --    7.00302   7.00932   7.11059   7.16150   7.19922
 Alpha virt. eigenvalues --    7.26296   7.31425   7.50750   7.63399   7.70420
 Alpha virt. eigenvalues --    7.70588   7.71161   7.81950   7.92192   8.13287
 Alpha virt. eigenvalues --    8.29525   8.40943   8.53285   8.60313   8.85393
 Alpha virt. eigenvalues --    8.90819   9.67800   9.71112  10.07661  10.11644
 Alpha virt. eigenvalues --   10.52147  10.52600  10.75241  10.84260  10.93872
 Alpha virt. eigenvalues --   11.14157  11.27146  11.54832  11.57256  11.63210
 Alpha virt. eigenvalues --   11.70176  12.04101  12.64334  13.28137  13.36035
 Alpha virt. eigenvalues --   13.46718  13.87131  14.21996  16.33505  16.36856
 Alpha virt. eigenvalues --   48.24784 251.31248
          Condensed to atoms (all electrons):
               1          2          3
     1  O    7.944573   0.325623   0.325623
     2  H    0.325623   0.386845  -0.010378
     3  H    0.325623  -0.010378   0.386845
 Mulliken charges:
               1
     1  O   -0.595820
     2  H    0.297910
     3  H    0.297910
 Sum of Mulliken charges =  -0.00000
 Mulliken charges with hydrogens summed into heavy atoms:
               1
     1  O   -0.000000
 Electronic spatial extent (au):  <R**2>=             19.6889
 Charge=             -0.0000 electrons
 Dipole moment (field-independent basis, Debye):
    X=             -0.0000    Y=              0.0000    Z=             -1.9552  Tot=              1.9552
 Quadrupole moment (field-independent basis, Debye-Ang):
   XX=             -7.6040   YY=             -4.3960   ZZ=             -6.3224
   XY=              0.0000   XZ=              0.0000   YZ=             -0.0000
 Traceless Quadrupole moment (field-independent basis, Debye-Ang):
   XX=             -1.4965   YY=              1.7115   ZZ=             -0.2150
   XY=              0.0000   XZ=              0.0000   YZ=             -0.0000
 Octapole moment (field-independent basis, Debye-Ang**2):
  XXX=              0.0000  YYY=              0.0000  ZZZ=             -1.1682  XYY=             -0.0000
  XXY=              0.0000  XXZ=             -0.2756  XZZ=              0.0000  YZZ=             -0.0000
  YYZ=             -1.3601  XYZ=             -0.0000
 Hexadecapole moment (field-independent basis, Debye-Ang**3):
 XXXX=             -6.7198 YYYY=             -6.2498 ZZZZ=             -7.3802 XXXY=             -0.0000
 XXXZ=             -0.0000 YYYX=             -0.0000 YYYZ=             -0.0000 ZZZX=             -0.0000
 ZZZY=             -0.0000 XXYY=             -2.4814 XXZZ=             -2.4054 YYZZ=             -1.9264
 XXYZ=             -0.0000 YYXZ=              0.0000 ZZXY=              0.0000
 N-N= 9.181285697706D+00 E-N=-1.992236809595D+02  KE= 7.619725830694D+01
 PrsmSu:  requested number of processors reduced to:  21 ShMem   1 Linda.
 No NMR shielding tensors so no spin-rotation constants.
 Leave Link  601 at Sun Apr 18 04:29:19 2021, MaxMem=   104857600 cpu:              82.7 elap:               1.9
 (Enter /s/ls4/users/knvvv/bin/g16sse/l801.exe)
 DoSCS=F DFT=T ScalE2(SS,OS)=  1.000000  1.000000
 Range of M.O.s used for correlation:     1   117
 NBasis=   117 NAE=     5 NBE=     5 NFC=     0 NFV=     0
 NROrb=    117 NOA=     5 NOB=     5 NVA=   112 NVB=   112

 **** Warning!!: The largest alpha MO coefficient is  0.15698381D+02

 Leave Link  801 at Sun Apr 18 04:29:19 2021, MaxMem=   104857600 cpu:               3.1 elap:               0.1
 (Enter /s/ls4/users/knvvv/bin/g16sse/l914.exe)
 RHF ground state
 Doing stability rather than CIS.
 Two-electron integrals replicated using symmetry.
 MDV=   104857600 DFT=T DoStab=T Mixed=T DoRPA=F DoScal=F NonHer=F
 Making orbital integer symmetry assigments:
 Orbital symmetries:
       Occupied  (A1) (A1) (B2) (A1) (B1)
       Virtual   (A1) (B2) (A1) (B2) (B1) (A1) (B2) (A1) (A2) (B1)
                 (A1) (B2) (A1) (B2) (B2) (A1) (A1) (B1) (A2) (A1)
                 (B1) (B2) (A1) (B1) (A1) (B2) (A2) (B2) (B1) (A1)
                 (B2) (A2) (A1) (B2) (A2) (B1) (A1) (B2) (B2) (A1)
                 (A1) (B1) (A2) (A1) (B1) (B2) (A1) (B1) (A1) (B2)
                 (A2) (A1) (B2) (B1) (A1) (B2) (B1) (A1) (A2) (B2)
                 (A2) (A1) (B2) (B1) (B2) (A2) (A1) (B1) (B2) (A1)
                 (B2) (A1) (B1) (B1) (A1) (A2) (B2) (A2) (A1) (B2)
                 (A1) (A2) (B2) (B1) (A1) (B2) (A1) (B1) (A1) (A2)
                 (A1) (B2) (A2) (B2) (B1) (B1) (A1) (B1) (A1) (B2)
                 (A2) (A1) (B2) (B2) (A1) (B1) (A2) (A1) (B2) (A1)
                 (A1) (A1)
    24 initial guesses have been made.
 Convergence on wavefunction:    0.001000000000000
 Davidson Disk Diagonalization:  ConvIn= 1.00D-03 SkipCon=T Conv= 1.00D-03.
 Max sub-space:  2000 roots to seek:    24 dimension of matrix:         1120
 Iteration     1 Dimension    24 NMult     0 NNew     24
 Estimated number of processors is:   20
 CISAX will form     1 AO SS matrices at one time.
 NMat=     1 NSing=     1 JSym2X= 2.
 FoFJK:  IHMeth= 1 ICntrl=       0 DoSepK=F KAlg= 0 I1Cent=           0 FoldK=F
 IRaf= 990000000 NMat=       1 IRICut=       1 DoRegI=T DoRafI=F ISym2E= 2 IDoP0=0 IntGTp=1.
 FoFCou: FMM=F IPFlag=           0 FMFlag=      100000 FMFlg1=           0
         NFxFlg=           0 DoJE=F BraDBF=F KetDBF=F FulRan=T
         wScrn=  0.000000 ICntrl=         0 IOpCl=  0 I1Cent=           0 NGrid=           0
         NMat0=    1 NMatS0=      1 NMatT0=    0 NMatD0=    1 NMtDS0=    0 NMtDT0=    0
 Integrals replicated using symmetry in FoFCou.
 CoulSu:  requested number of processors reduced to:  20 ShMem   1 Linda.
 NMat=     1 NSing=     1 JSym2X= 2.
 CoulSu:  requested number of processors reduced to:  20 ShMem   1 Linda.
 NMat=     1 NSing=     1 JSym2X= 2.
 CoulSu:  requested number of processors reduced to:  20 ShMem   1 Linda.
 NMat=     1 NSing=     1 JSym2X= 2.
 CoulSu:  requested number of processors reduced to:  20 ShMem   1 Linda.
 NMat=     1 NSing=     1 JSym2X= 2.
 CoulSu:  requested number of processors reduced to:  20 ShMem   1 Linda.
 NMat=     1 NSing=     1 JSym2X= 2.
 CoulSu:  requested number of processors reduced to:  20 ShMem   1 Linda.
 NMat=     1 NSing=     1 JSym2X= 2.
 CoulSu:  requested number of processors reduced to:  20 ShMem   1 Linda.
 NMat=     1 NSing=     1 JSym2X= 2.
 CoulSu:  requested number of processors reduced to:  20 ShMem   1 Linda.
 NMat=     1 NSing=     1 JSym2X= 2.
 CoulSu:  requested number of processors reduced to:  20 ShMem   1 Linda.
 NMat=     1 NSing=     1 JSym2X= 2.
 CoulSu:  requested number of processors reduced to:  20 ShMem   1 Linda.
 NMat=     1 NSing=     1 JSym2X= 2.
 CoulSu:  requested number of processors reduced to:  20 ShMem   1 Linda.
 NMat=     1 NSing=     1 JSym2X= 2.
 CoulSu:  requested number of processors reduced to:  20 ShMem   1 Linda.
 NMat=     1 NSing=     0 JSym2X= 2.
 CoulSu:  requested number of processors reduced to:  20 ShMem   1 Linda.
 NMat=     1 NSing=     0 JSym2X= 2.
 CoulSu:  requested number of processors reduced to:  20 ShMem   1 Linda.
 NMat=     1 NSing=     0 JSym2X= 2.
 CoulSu:  requested number of processors reduced to:  20 ShMem   1 Linda.
 NMat=     1 NSing=     0 JSym2X= 2.
 CoulSu:  requested number of processors reduced to:  20 ShMem   1 Linda.
 NMat=     1 NSing=     0 JSym2X= 2.
 CoulSu:  requested number of processors reduced to:  20 ShMem   1 Linda.
 NMat=     1 NSing=     0 JSym2X= 2.
 CoulSu:  requested number of processors reduced to:  20 ShMem   1 Linda.
 NMat=     1 NSing=     0 JSym2X= 2.
 CoulSu:  requested number of processors reduced to:  20 ShMem   1 Linda.
 NMat=     1 NSing=     0 JSym2X= 2.
 CoulSu:  requested number of processors reduced to:  20 ShMem   1 Linda.
 NMat=     1 NSing=     0 JSym2X= 2.
 CoulSu:  requested number of processors reduced to:  20 ShMem   1 Linda.
 NMat=     1 NSing=     0 JSym2X= 2.
 CoulSu:  requested number of processors reduced to:  20 ShMem   1 Linda.
 NMat=     1 NSing=     0 JSym2X= 2.
 CoulSu:  requested number of processors reduced to:  20 ShMem   1 Linda.
 NMat=     1 NSing=     0 JSym2X= 2.
 CoulSu:  requested number of processors reduced to:  20 ShMem   1 Linda.
 New state      1 was old state      2
 Excitation Energies [eV] at current iteration:
 Root      1 :     7.703546328551361
 Root      2 :     8.278274130613154
 Root      3 :     9.751709970262375
 Root      4 :     9.898576513382645
 Root      5 :    10.167426203279520
 Root      6 :    10.597226154335020
 Root      7 :    11.818285872000240
 Root      8 :    12.293017925934230
 Root      9 :    13.413806492790470
 Root     10 :    13.965561982506890
 Root     11 :    14.093186262338050
 Root     12 :    14.112073024486550
 Root     13 :    14.115363427756080
 Root     14 :    14.441123253159220
 Root     15 :    14.525744188310270
 Root     16 :    14.833911284850150
 Root     17 :    15.243468505924770
 Root     18 :    15.261129692139870
 Root     19 :    15.781974174438870
 Root     20 :    16.139003905908470
 Root     21 :    16.150318567912800
 Root     22 :    16.236989208246080
 Root     23 :    18.259719539634800
 Root     24 :    24.525924854197830
 Iteration     2 Dimension    48 NMult    24 NNew     24
 Estimated number of processors is:   20
 CISAX will form     1 AO SS matrices at one time.
 NMat=     1 NSing=     1 JSym2X= 2.
 CoulSu:  requested number of processors reduced to:  20 ShMem   1 Linda.
 NMat=     1 NSing=     1 JSym2X= 2.
 CoulSu:  requested number of processors reduced to:  20 ShMem   1 Linda.
 NMat=     1 NSing=     1 JSym2X= 2.
 CoulSu:  requested number of processors reduced to:  20 ShMem   1 Linda.
 NMat=     1 NSing=     1 JSym2X= 2.
 CoulSu:  requested number of processors reduced to:  20 ShMem   1 Linda.
 NMat=     1 NSing=     1 JSym2X= 2.
 CoulSu:  requested number of processors reduced to:  20 ShMem   1 Linda.
 NMat=     1 NSing=     1 JSym2X= 2.
 CoulSu:  requested number of processors reduced to:  20 ShMem   1 Linda.
 NMat=     1 NSing=     1 JSym2X= 2.
 CoulSu:  requested number of processors reduced to:  20 ShMem   1 Linda.
 NMat=     1 NSing=     1 JSym2X= 2.
 CoulSu:  requested number of processors reduced to:  20 ShMem   1 Linda.
 NMat=     1 NSing=     1 JSym2X= 2.
 CoulSu:  requested number of processors reduced to:  20 ShMem   1 Linda.
 NMat=     1 NSing=     1 JSym2X= 2.
 CoulSu:  requested number of processors reduced to:  20 ShMem   1 Linda.
 NMat=     1 NSing=     1 JSym2X= 2.
 CoulSu:  requested number of processors reduced to:  20 ShMem   1 Linda.
 NMat=     1 NSing=     1 JSym2X= 2.
 CoulSu:  requested number of processors reduced to:  20 ShMem   1 Linda.
 NMat=     1 NSing=     0 JSym2X= 2.
 CoulSu:  requested number of processors reduced to:  20 ShMem   1 Linda.
 NMat=     1 NSing=     0 JSym2X= 2.
 CoulSu:  requested number of processors reduced to:  20 ShMem   1 Linda.
 NMat=     1 NSing=     0 JSym2X= 2.
 CoulSu:  requested number of processors reduced to:  20 ShMem   1 Linda.
 NMat=     1 NSing=     0 JSym2X= 2.
 CoulSu:  requested number of processors reduced to:  20 ShMem   1 Linda.
 NMat=     1 NSing=     0 JSym2X= 2.
 CoulSu:  requested number of processors reduced to:  20 ShMem   1 Linda.
 NMat=     1 NSing=     0 JSym2X= 2.
 CoulSu:  requested number of processors reduced to:  20 ShMem   1 Linda.
 NMat=     1 NSing=     0 JSym2X= 2.
 CoulSu:  requested number of processors reduced to:  20 ShMem   1 Linda.
 NMat=     1 NSing=     0 JSym2X= 2.
 CoulSu:  requested number of processors reduced to:  20 ShMem   1 Linda.
 NMat=     1 NSing=     0 JSym2X= 2.
 CoulSu:  requested number of processors reduced to:  20 ShMem   1 Linda.
 NMat=     1 NSing=     0 JSym2X= 2.
 CoulSu:  requested number of processors reduced to:  20 ShMem   1 Linda.
 NMat=     1 NSing=     0 JSym2X= 2.
 CoulSu:  requested number of processors reduced to:  20 ShMem   1 Linda.
 NMat=     1 NSing=     0 JSym2X= 2.
 CoulSu:  requested number of processors reduced to:  20 ShMem   1 Linda.
 Root      1 not converged, maximum delta is    0.058612980993907
 Excitation Energies [eV] at current iteration:
 Root      1 :     7.393021766546688   Change is   -0.310524562004674
 Root      2 :     8.182486977387832   Change is   -0.095787153225320
 Root      3 :     9.233394278540631   Change is   -0.518315691721746
 Root      4 :     9.361767039238662   Change is   -0.805659164040856
 Root      5 :     9.639946273888180   Change is   -0.258630239494467
 Root      6 :    10.401073694508370   Change is   -0.196152459826648
 Root      7 :    10.989058690634810   Change is   -0.829227181365429
 Root      8 :    12.026360718732760   Change is   -0.266657207201468
 Root      9 :    12.612207685464860   Change is   -0.801598807325603
 Root     10 :    12.958002314280060   Change is   -1.007559668226837
 Root     11 :    13.658663387009590   Change is   -0.434522875328457
 Root     12 :    13.813261252118370   Change is   -1.447868440021504
 Root     13 :    13.944562634819380   Change is   -0.170800792936701
 Root     14 :    13.978465905705280   Change is   -0.133607118781274
 Root     15 :    14.187084518736980   Change is   -0.338659669573287
 Root     16 :    14.338626252963220   Change is   -0.102497000196000
 Root     17 :    14.405615974687650   Change is   -0.428295310162495
 Root     18 :    14.850546714511730   Change is   -0.392921791413038
 Root     19 :    15.231391974800660   Change is   -1.005597233445422
 Root     20 :    15.511286345356200   Change is   -0.270687829082664
 Root     21 :    15.650117945776250   Change is   -0.488885960132228
 Root     22 :    15.655259643793280   Change is   -0.495058924119518
 Root     23 :    17.095933427892080   Change is   -1.163786111742723
 Root     24 :    18.544359123026380
 Iteration     3 Dimension    54 NMult    48 NNew      6
 Estimated number of processors is:   20
 CISAX will form     1 AO SS matrices at one time.
 NMat=     1 NSing=     1 JSym2X= 2.
 CoulSu:  requested number of processors reduced to:  20 ShMem   1 Linda.
 NMat=     1 NSing=     1 JSym2X= 2.
 CoulSu:  requested number of processors reduced to:  20 ShMem   1 Linda.
 NMat=     1 NSing=     1 JSym2X= 2.
 CoulSu:  requested number of processors reduced to:  20 ShMem   1 Linda.
 NMat=     1 NSing=     0 JSym2X= 2.
 CoulSu:  requested number of processors reduced to:  20 ShMem   1 Linda.
 NMat=     1 NSing=     0 JSym2X= 2.
 CoulSu:  requested number of processors reduced to:  20 ShMem   1 Linda.
 NMat=     1 NSing=     0 JSym2X= 2.
 CoulSu:  requested number of processors reduced to:  20 ShMem   1 Linda.
 Root      1 not converged, maximum delta is    0.003126516627601
 Excitation Energies [eV] at current iteration:
 Root      1 :     7.390077330589657   Change is   -0.002944435957031
 Root      2 :     8.180101121845173   Change is   -0.002385855542659
 Root      3 :     9.226893288444298   Change is   -0.006500990096332
 Root      4 :     9.322690570656537   Change is   -0.039076468582125
 Root      5 :     9.636132265366987   Change is   -0.003814008521192
 Root      6 :    10.389499011300470   Change is   -0.011574683207897
 Iteration     4 Dimension    60 NMult    54 NNew      6
 Estimated number of processors is:   20
 CISAX will form     1 AO SS matrices at one time.
 NMat=     1 NSing=     1 JSym2X= 2.
 CoulSu:  requested number of processors reduced to:  20 ShMem   1 Linda.
 NMat=     1 NSing=     1 JSym2X= 2.
 CoulSu:  requested number of processors reduced to:  20 ShMem   1 Linda.
 NMat=     1 NSing=     1 JSym2X= 2.
 CoulSu:  requested number of processors reduced to:  20 ShMem   1 Linda.
 NMat=     1 NSing=     0 JSym2X= 2.
 CoulSu:  requested number of processors reduced to:  20 ShMem   1 Linda.
 NMat=     1 NSing=     0 JSym2X= 2.
 CoulSu:  requested number of processors reduced to:  20 ShMem   1 Linda.
 NMat=     1 NSing=     0 JSym2X= 2.
 CoulSu:  requested number of processors reduced to:  20 ShMem   1 Linda.
 Root      1 has converged.
 Excitation Energies [eV] at current iteration:
 Root      1 :     7.390044352454979   Change is   -0.000032978134677
 Root      2 :     8.180083170573909   Change is   -0.000017951271264
 Root      3 :     9.226777702289146   Change is   -0.000115586155152
 Root      4 :     9.321784117049832   Change is   -0.000906453606706
 Root      5 :     9.636089443512468   Change is   -0.000042821854519
 Root      6 :    10.388897111788880   Change is   -0.000601899511592
 Convergence achieved on expansion vectors.
 ***********************************************************************
 Stability analysis using <AA,BB:AA,BB> singles matrix:
 ***********************************************************************
 1PDM for each excited state written to RWF  633
 Ground to excited state transition densities written to RWF  633

 Eigenvectors of the stability matrix:
 
 Eigenvector   1:      Triplet-B1   Eigenvalue= 0.2715791  <S**2>=2.000
       5 ->  6         0.67897
       5 -> 11        -0.17262
 The wavefunction is stable under the perturbations considered.
 Leave Link  914 at Sun Apr 18 04:30:43 2021, MaxMem=   104857600 cpu:            3034.1 elap:              83.2
 (Enter /s/ls4/users/knvvv/bin/g16sse/l508.exe)
 The wavefunction is already stable.
 Leave Link  508 at Sun Apr 18 04:30:43 2021, MaxMem=   104857600 cpu:               2.2 elap:               0.1
 (Enter /s/ls4/users/knvvv/bin/g16sse/l601.exe)
 Copying SCF densities to generalized density rwf, IOpCl= 0 IROHF=0.

 **********************************************************************

            Population analysis using the SCF density.

 **********************************************************************

 Orbital symmetries:
       Occupied  (A1) (A1) (B2) (A1) (B1)
       Virtual   (A1) (B2) (A1) (B2) (B1) (A1) (B2) (A1) (A2) (B1)
                 (A1) (B2) (A1) (B2) (B2) (A1) (A1) (B1) (A2) (A1)
                 (B1) (B2) (A1) (B1) (A1) (B2) (A2) (B2) (B1) (A1)
                 (B2) (A2) (A1) (B2) (A2) (B1) (A1) (B2) (B2) (A1)
                 (A1) (B1) (A2) (A1) (B1) (B2) (A1) (B1) (A1) (B2)
                 (A2) (A1) (B2) (B1) (A1) (B2) (B1) (A1) (A2) (B2)
                 (A2) (A1) (B2) (B1) (B2) (A2) (A1) (B1) (B2) (A1)
                 (B2) (A1) (B1) (B1) (A1) (A2) (B2) (A2) (A1) (B2)
                 (A1) (A2) (B2) (B1) (A1) (B2) (A1) (B1) (A1) (A2)
                 (A1) (B2) (A2) (B2) (B1) (B1) (A1) (B1) (A1) (B2)
                 (A2) (A1) (B2) (B2) (A1) (B1) (A2) (A1) (B2) (A1)
                 (A1) (A1)
 The electronic state is 1-A1.
 Alpha  occ. eigenvalues --  -19.62716  -1.13613  -0.60849  -0.47697  -0.40238
 Alpha virt. eigenvalues --    0.03685   0.08498   0.26920   0.29573   0.30063
 Alpha virt. eigenvalues --    0.33852   0.41701   0.48227   0.54693   0.60088
 Alpha virt. eigenvalues --    0.62973   0.79264   0.91567   0.93643   1.01489
 Alpha virt. eigenvalues --    1.06011   1.29853   1.29929   1.31532   1.37920
 Alpha virt. eigenvalues --    1.40013   1.44900   1.79673   1.86901   1.96843
 Alpha virt. eigenvalues --    1.99685   2.08472   2.24387   2.26909   2.30519
 Alpha virt. eigenvalues --    2.31219   2.38365   2.49535   2.54706   2.61957
 Alpha virt. eigenvalues --    2.64395   2.81769   2.92635   3.10064   3.11294
 Alpha virt. eigenvalues --    3.20551   3.67108   3.79617   3.82315   3.84678
 Alpha virt. eigenvalues --    3.99903   4.06953   4.18323   4.19783   4.37639
 Alpha virt. eigenvalues --    4.56668   4.71581   4.74486   5.23520   5.28274
 Alpha virt. eigenvalues --    5.29876   5.59533   5.80054   5.85827   5.95231
 Alpha virt. eigenvalues --    6.31989   6.39581   6.64592   6.92254   6.95790
 Alpha virt. eigenvalues --    7.00302   7.00932   7.11059   7.16150   7.19922
 Alpha virt. eigenvalues --    7.26296   7.31425   7.50750   7.63399   7.70420
 Alpha virt. eigenvalues --    7.70588   7.71161   7.81950   7.92192   8.13287
 Alpha virt. eigenvalues --    8.29525   8.40943   8.53285   8.60313   8.85393
 Alpha virt. eigenvalues --    8.90819   9.67800   9.71112  10.07661  10.11644
 Alpha virt. eigenvalues --   10.52147  10.52600  10.75241  10.84260  10.93872
 Alpha virt. eigenvalues --   11.14157  11.27146  11.54832  11.57256  11.63210
 Alpha virt. eigenvalues --   11.70176  12.04101  12.64334  13.28137  13.36035
 Alpha virt. eigenvalues --   13.46718  13.87131  14.21996  16.33505  16.36856
 Alpha virt. eigenvalues --   48.24784 251.31248
          Condensed to atoms (all electrons):
               1          2          3
     1  O    7.944573   0.325623   0.325623
     2  H    0.325623   0.386845  -0.010378
     3  H    0.325623  -0.010378   0.386845
 Mulliken charges:
               1
     1  O   -0.595820
     2  H    0.297910
     3  H    0.297910
 Sum of Mulliken charges =  -0.00000
 Mulliken charges with hydrogens summed into heavy atoms:
               1
     1  O   -0.000000
 Electronic spatial extent (au):  <R**2>=             19.6889
 Charge=             -0.0000 electrons
 Dipole moment (field-independent basis, Debye):
    X=             -0.0000    Y=              0.0000    Z=             -1.9552  Tot=              1.9552
 Quadrupole moment (field-independent basis, Debye-Ang):
   XX=             -7.6040   YY=             -4.3960   ZZ=             -6.3224
   XY=              0.0000   XZ=              0.0000   YZ=             -0.0000
 Traceless Quadrupole moment (field-independent basis, Debye-Ang):
   XX=             -1.4965   YY=              1.7115   ZZ=             -0.2150
   XY=              0.0000   XZ=              0.0000   YZ=             -0.0000
 Octapole moment (field-independent basis, Debye-Ang**2):
  XXX=              0.0000  YYY=              0.0000  ZZZ=             -1.1682  XYY=             -0.0000
  XXY=              0.0000  XXZ=             -0.2756  XZZ=              0.0000  YZZ=             -0.0000
  YYZ=             -1.3601  XYZ=             -0.0000
 Hexadecapole moment (field-independent basis, Debye-Ang**3):
 XXXX=             -6.7198 YYYY=             -6.2498 ZZZZ=             -7.3802 XXXY=             -0.0000
 XXXZ=             -0.0000 YYYX=             -0.0000 YYYZ=             -0.0000 ZZZX=             -0.0000
 ZZZY=             -0.0000 XXYY=             -2.4814 XXZZ=             -2.4054 YYZZ=             -1.9264
 XXYZ=             -0.0000 YYXZ=              0.0000 ZZXY=              0.0000
 N-N= 9.181285697706D+00 E-N=-1.992236809595D+02  KE= 7.619725830694D+01
 PrsmSu:  requested number of processors reduced to:  21 ShMem   1 Linda.
 No NMR shielding tensors so no spin-rotation constants.
 Leave Link  601 at Sun Apr 18 04:30:45 2021, MaxMem=   104857600 cpu:              98.1 elap:               2.2
 (Enter /s/ls4/users/knvvv/bin/g16sse/l9999.exe)

 Test job not archived.
 1\1\GINC-N178\Stability\RM062X\def2QZVP\H2O1\KNVVV\18-Apr-2021\0\\#P M
 062X/Def2QZVP Integral=UltraFineGrid SCF=NoSymm Stable=(RExt, Opt) IOp
 (1/33=1)\\Database calculations.\\0,1\O,0,0.,0.,0.39393904\H,0,-0.7550
 3878,0.,-0.19696952\H,0,0.75503878,0.,-0.19696952\\Version=ES64L-G16Re
 vA.03\State=1-A1\HF=-76.4361669\RMSD=5.575e-09\Dipole=0.,0.,-0.7692466
 \Quadrupole=1.2724389,-1.112623,-0.1598159,0.,0.,0.\PG=C02V [C2(O1),SG
 V(H2)]\\@


 We find comfort among those who agree with us -- growth among those who don't.
 -- Frank A. Clark
 Job cpu time:       0 days  1 hours 30 minutes  3.9 seconds.
 Elapsed time:       0 days  0 hours  2 minutes 14.7 seconds.
 File lengths (MBytes):  RWF=     52 Int=      0 D2E=      0 Chk=      3 Scr=      1
 Normal termination of Gaussian 16 at Sun Apr 18 04:30:45 2021.
