 Entering Gaussian System, Link 0=/s/ls4/users/knvvv/bin/g16sse/g16
 Input=data/database/M062X--def2-QZVPPD--47_Br_HNBrBDE18.gjf
 Output=data/database/M062X--def2-QZVPPD--47_Br_HNBrBDE18.log
 Initial command:
 /s/ls4/users/knvvv/bin/g16sse/l1.exe "/s/ls4/users/knvvv/bin/scratch/Gau-10066.inp" -scrdir="/s/ls4/users/knvvv/bin/scratch/"
 Entering Link 1 = /s/ls4/users/knvvv/bin/g16sse/l1.exe PID=     10067.
  
 Copyright (c) 1988,1990,1992,1993,1995,1998,2003,2009,2016,
            Gaussian, Inc.  All Rights Reserved.
  
 This is part of the Gaussian(R) 16 program.  It is based on
 the Gaussian(R) 09 system (copyright 2009, Gaussian, Inc.),
 the Gaussian(R) 03 system (copyright 2003, Gaussian, Inc.),
 the Gaussian(R) 98 system (copyright 1998, Gaussian, Inc.),
 the Gaussian(R) 94 system (copyright 1995, Gaussian, Inc.),
 the Gaussian 92(TM) system (copyright 1992, Gaussian, Inc.),
 the Gaussian 90(TM) system (copyright 1990, Gaussian, Inc.),
 the Gaussian 88(TM) system (copyright 1988, Gaussian, Inc.),
 the Gaussian 86(TM) system (copyright 1986, Carnegie Mellon
 University), and the Gaussian 82(TM) system (copyright 1983,
 Carnegie Mellon University). Gaussian is a federally registered
 trademark of Gaussian, Inc.
  
 This software contains proprietary and confidential information,
 including trade secrets, belonging to Gaussian, Inc.
  
 This software is provided under written license and may be
 used, copied, transmitted, or stored only in accord with that
 written license.
  
 The following legend is applicable only to US Government
 contracts under FAR:
  
                    RESTRICTED RIGHTS LEGEND
  
 Use, reproduction and disclosure by the US Government is
 subject to restrictions as set forth in subparagraphs (a)
 and (c) of the Commercial Computer Software - Restricted
 Rights clause in FAR 52.227-19.
  
 Gaussian, Inc.
 340 Quinnipiac St., Bldg. 40, Wallingford CT 06492
  
  
 ---------------------------------------------------------------
 Warning -- This program may not be used in any manner that
 competes with the business of Gaussian, Inc. or will provide
 assistance to any competitor of Gaussian, Inc.  The licensee
 of this program is prohibited from giving any competitor of
 Gaussian, Inc. access to this program.  By using this program,
 the user acknowledges that Gaussian, Inc. is engaged in the
 business of creating and licensing software in the field of
 computational chemistry and represents and warrants to the
 licensee that it is not a competitor of Gaussian, Inc. and that
 it will not use this program in any manner prohibited above.
 ---------------------------------------------------------------
  

 Cite this work as:
 Gaussian 16, Revision A.03,
 M. J. Frisch, G. W. Trucks, H. B. Schlegel, G. E. Scuseria, 
 M. A. Robb, J. R. Cheeseman, G. Scalmani, V. Barone, 
 G. A. Petersson, H. Nakatsuji, X. Li, M. Caricato, A. V. Marenich, 
 J. Bloino, B. G. Janesko, R. Gomperts, B. Mennucci, H. P. Hratchian, 
 J. V. Ortiz, A. F. Izmaylov, J. L. Sonnenberg, D. Williams-Young, 
 F. Ding, F. Lipparini, F. Egidi, J. Goings, B. Peng, A. Petrone, 
 T. Henderson, D. Ranasinghe, V. G. Zakrzewski, J. Gao, N. Rega, 
 G. Zheng, W. Liang, M. Hada, M. Ehara, K. Toyota, R. Fukuda, 
 J. Hasegawa, M. Ishida, T. Nakajima, Y. Honda, O. Kitao, H. Nakai, 
 T. Vreven, K. Throssell, J. A. Montgomery, Jr., J. E. Peralta, 
 F. Ogliaro, M. J. Bearpark, J. J. Heyd, E. N. Brothers, K. N. Kudin, 
 V. N. Staroverov, T. A. Keith, R. Kobayashi, J. Normand, 
 K. Raghavachari, A. P. Rendell, J. C. Burant, S. S. Iyengar, 
 J. Tomasi, M. Cossi, J. M. Millam, M. Klene, C. Adamo, R. Cammi, 
 J. W. Ochterski, R. L. Martin, K. Morokuma, O. Farkas, 
 J. B. Foresman, and D. J. Fox, Gaussian, Inc., Wallingford CT, 2016.
 
 ******************************************
 Gaussian 16:  ES64L-G16RevA.03 25-Dec-2016
                18-Apr-2021 
 ******************************************
 %RWF=temp5_63370,70GB
 %nprocshared=48
 Will use up to   48 processors via shared memory.
 Default route: MaxDisk=80GB
 ----------------------------------------------------------------------
 #P M062X/GEN Integral=UltraFineGrid SCF=NoSymm Stable=(RExt, Opt) IOp(
 1/33=1)
 ----------------------------------------------------------------------
 1/33=1,38=1,172=1/1;
 2/12=2,17=6,18=5,40=1/2;
 3/5=7,11=2,25=1,30=1,74=-55,75=-5/1,2,3;
 4/9=2/1;
 5/5=2,38=5/2;
 6/7=2,8=2,9=2,10=2,28=1/1;
 8/6=1,10=90,11=11/1;
 9/8=-3,42=1,46=1/14;
 5/5=2,8=3,17=40,38=5/8(-2);
 6/7=2,8=2,9=2,10=2,28=1/1;
 99/5=1,9=1/99;
 Leave Link    1 at Sun Apr 18 13:05:47 2021, MaxMem=           0 cpu:              11.1 elap:               0.3
 (Enter /s/ls4/users/knvvv/bin/g16sse/l101.exe)
 ONIOM data not found on unit 2.
 ----------------------
 Database calculations.
 ----------------------
 TstMul:  ICh=     0
 TstMul:  Mul=     2
 TstMul:  ICh=     0
 TstMul:  Mul=     2
 Symbolic Z-matrix:
 Charge =  0 Multiplicity = 2
 Br                    0.        0.        0. 
 
 RdStrC is calling ZToCFu for IStruc=1 NZ=     1.
 PrtBox:  NBox=     1 Levels=  0 BoxLen=    8.00 SMaxX=        0.00
          Shift=            0.000000            0.000000            0.000000
 Box      1 Number                   0 centers from      1 to      1:
 After GenITR:
 ITRead=  0
 MicOpt= -1
 ITRead=  0
 MicOpt= -1
 NAtoms=      1 NQM=        1 NQMF=       0 NMMI=      0 NMMIF=      0
                NMic=       0 NMicF=      0.
                    Isotopes and Nuclear Properties:
 (Nuclear quadrupole moments (NQMom) in fm**2, nuclear magnetic moments (NMagM)
  in nuclear magnetons)

  Atom         1
 IAtWgt=          79
 AtmWgt=  78.9183361
 NucSpn=           3
 AtZEff=  -0.0000000
 NQMom=   31.3000000
 NMagM=    2.1063990
 AtZNuc=  35.0000000
 No MM parameters found.
 Leave Link  101 at Sun Apr 18 13:05:48 2021, MaxMem=   104857600 cpu:              12.9 elap:               0.4
 (Enter /s/ls4/users/knvvv/bin/g16sse/l202.exe)
                          Input orientation:                          
 ---------------------------------------------------------------------
 Center     Atomic      Atomic             Coordinates (Angstroms)
 Number     Number       Type             X           Y           Z
 ---------------------------------------------------------------------
      1         35           0        0.000000    0.000000    0.000000
 ---------------------------------------------------------------------
 Stoichiometry    Br(2)
 Framework group  OH[O(Br)]
 Deg. of freedom     0
 Full point group                 OH      NOp  48
 Largest Abelian subgroup         D2H     NOp   8
 Largest concise Abelian subgroup C1      NOp   1
                         Standard orientation:                         
 ---------------------------------------------------------------------
 Center     Atomic      Atomic             Coordinates (Angstroms)
 Number     Number       Type             X           Y           Z
 ---------------------------------------------------------------------
      1         35           0        0.000000    0.000000    0.000000
 ---------------------------------------------------------------------
 Leave Link  202 at Sun Apr 18 13:05:49 2021, MaxMem=   104857600 cpu:              33.6 elap:               0.8
 (Enter /s/ls4/users/knvvv/bin/g16sse/l301.exe)
 General basis read from cards:  (5D, 7F)
 Centers:       1
 S 11 1.00
     Exponent=  1.0629044264D+07 Coefficients=  5.9322104325D-06
     Exponent=  1.5919182739D+06 Coefficients=  4.6118980689D-05
     Exponent=  3.6233398437D+05 Coefficients=  2.4244612378D-04
     Exponent=  1.0264311141D+05 Coefficients=  1.0231422748D-03
     Exponent=  3.3489846668D+04 Coefficients=  3.7121984175D-03
     Exponent=  1.2091247190D+04 Coefficients=  1.1978107933D-02
     Exponent=  4.7161908789D+03 Coefficients=  3.4682692842D-02
     Exponent=  1.9561598080D+03 Coefficients=  8.9068331264D-02
     Exponent=  8.5308595848D+02 Coefficients=  1.9330124567D-01
     Exponent=  3.8796633666D+02 Coefficients=  3.2071144956D-01
     Exponent=  1.8285156613D+02 Coefficients=  3.2996797574D-01
 S 4 1.00
     Exponent=  3.2404086421D+03 Coefficients=  6.5905194070D-03
     Exponent=  1.0004631935D+03 Coefficients=  6.8439609656D-02
     Exponent=  3.8337301682D+02 Coefficients=  3.4495478668D-01
     Exponent=  1.6603929698D+02 Coefficients=  8.2315542085D-01
 S 1 1.00
     Exponent=  8.7919906994D+01 Coefficients=  1.0000000000D+00
 S 1 1.00
     Exponent=  3.5675840068D+01 Coefficients=  1.0000000000D+00
 S 1 1.00
     Exponent=  1.7543657842D+01 Coefficients=  1.0000000000D+00
 S 1 1.00
     Exponent=  8.4473660433D+00 Coefficients=  1.0000000000D+00
 S 1 1.00
     Exponent=  3.9666180616D+00 Coefficients=  1.0000000000D+00
 S 1 1.00
     Exponent=  1.8356815987D+00 Coefficients=  1.0000000000D+00
 S 1 1.00
     Exponent=  5.9084778776D-01 Coefficients=  1.0000000000D+00
 S 1 1.00
     Exponent=  2.8863218421D-01 Coefficients=  1.0000000000D+00
 S 1 1.00
     Exponent=  1.2153380537D-01 Coefficients=  1.0000000000D+00
 S 1 1.00
     Exponent=  4.7973937210D-02 Coefficients=  1.0000000000D+00
 P 10 1.00
     Exponent=  2.6566476579D+04 Coefficients=  6.2073657410D-05
     Exponent=  6.2905088566D+03 Coefficients=  5.5131636217D-04
     Exponent=  2.0433178410D+03 Coefficients=  3.1680110980D-03
     Exponent=  7.8167221007D+02 Coefficients=  1.3816597290D-02
     Exponent=  3.3151078945D+02 Coefficients=  4.8018539681D-02
     Exponent=  1.5109198667D+02 Coefficients=  1.3162015183D-01
     Exponent=  7.2395278166D+01 Coefficients=  2.6860052203D-01
     Exponent=  3.5869510844D+01 Coefficients=  3.6827391093D-01
     Exponent=  1.8139906191D+01 Coefficients=  2.7108612944D-01
     Exponent=  9.0466688944D+00 Coefficients=  7.6215338633D-02
 P 5 1.00
     Exponent=  2.5371822146D+02 Coefficients= -1.3729169381D-03
     Exponent=  9.7250818058D+01 Coefficients= -1.0393811185D-02
     Exponent=  4.2034897960D+01 Coefficients= -3.2204214612D-02
     Exponent=  9.9685673555D+00 Coefficients=  2.4224770086D-01
     Exponent=  4.9395854745D+00 Coefficients=  5.3557868398D-01
 P 1 1.00
     Exponent=  2.4382845475D+00 Coefficients=  1.0000000000D+00
 P 1 1.00
     Exponent=  1.1800000000D+00 Coefficients=  1.0000000000D+00
 P 1 1.00
     Exponent=  5.1047564965D-01 Coefficients=  1.0000000000D+00
 P 1 1.00
     Exponent=  2.1215851928D-01 Coefficients=  1.0000000000D+00
 P 1 1.00
     Exponent=  8.3943604990D-02 Coefficients=  1.0000000000D+00
 P 1 1.00
     Exponent=  2.4444628965D-02 Coefficients=  1.0000000000D+00
 D 7 1.00
     Exponent=  6.0144434484D+02 Coefficients=  6.2783723765D-04
     Exponent=  1.8085718640D+02 Coefficients=  5.7205157153D-03
     Exponent=  6.9986806340D+01 Coefficients=  2.9002521527D-02
     Exponent=  3.0324710300D+01 Coefficients=  9.6446989766D-02
     Exponent=  1.4027909238D+01 Coefficients=  2.2065825870D-01
     Exponent=  6.6511702082D+00 Coefficients=  3.3657642375D-01
     Exponent=  3.1354168338D+00 Coefficients=  3.4872040582D-01
 D 1 1.00
     Exponent=  1.4393591843D+00 Coefficients=  2.0984536473D-01
 D 1 1.00
     Exponent=  5.9350441438D-01 Coefficients=  1.0000000000D+00
 D 1 1.00
     Exponent=  2.3000000000D-01 Coefficients=  1.0000000000D+00
 D 1 1.00
     Exponent=  7.6665512897D-02 Coefficients=  1.0000000000D+00
 F 1 1.00
     Exponent=  1.2703062423D+01 Coefficients=  1.0000000000D+00
 F 1 1.00
     Exponent=  4.0083455670D+00 Coefficients=  1.0000000000D+00
 F 1 1.00
     Exponent=  8.2570000000D-01 Coefficients=  1.0000000000D+00
 F 1 1.00
     Exponent=  3.4070000000D-01 Coefficients=  1.0000000000D+00
 G 1 1.00
     Exponent=  6.4910000000D-01 Coefficients=  1.0000000000D+00
 ****
 Ernie: Thresh=  0.10000D-02 Tol=  0.10000D-05 Strict=F.
 There are    33 symmetry adapted cartesian basis functions of AG  symmetry.
 There are     8 symmetry adapted cartesian basis functions of B1G symmetry.
 There are     8 symmetry adapted cartesian basis functions of B2G symmetry.
 There are     8 symmetry adapted cartesian basis functions of B3G symmetry.
 There are     4 symmetry adapted cartesian basis functions of AU  symmetry.
 There are    20 symmetry adapted cartesian basis functions of B1U symmetry.
 There are    20 symmetry adapted cartesian basis functions of B2U symmetry.
 There are    20 symmetry adapted cartesian basis functions of B3U symmetry.
 There are    25 symmetry adapted basis functions of AG  symmetry.
 There are     7 symmetry adapted basis functions of B1G symmetry.
 There are     7 symmetry adapted basis functions of B2G symmetry.
 There are     7 symmetry adapted basis functions of B3G symmetry.
 There are     4 symmetry adapted basis functions of AU  symmetry.
 There are    16 symmetry adapted basis functions of B1U symmetry.
 There are    16 symmetry adapted basis functions of B2U symmetry.
 There are    16 symmetry adapted basis functions of B3U symmetry.
    98 basis functions,   209 primitive gaussians,   121 cartesian basis functions
    18 alpha electrons       17 beta electrons
       nuclear repulsion energy         0.0000000000 Hartrees.
 IExCor= 4336 DFT=T Ex+Corr=M062X ExCW=0 ScaHFX=  0.540000
 ScaDFX=  1.000000  1.000000  1.000000  1.000000 ScalE2=  1.000000  1.000000
 IRadAn=      5 IRanWt=     -1 IRanGd=            0 ICorTp=0 IEmpDi=  4
 NAtoms=    1 NActive=    1 NUniq=    1 SFac= 1.00D+00 NAtFMM=   60 NAOKFM=F Big=F
 Integral buffers will be    131072 words long.
 Raffenetti 2 integral format.
 Two-electron integral symmetry is turned on.
 Leave Link  301 at Sun Apr 18 13:05:49 2021, MaxMem=   104857600 cpu:              17.5 elap:               0.5
 (Enter /s/ls4/users/knvvv/bin/g16sse/l302.exe)
 NPDir=0 NMtPBC=     1 NCelOv=     1 NCel=       1 NClECP=     1 NCelD=      1
         NCelK=      1 NCelE2=     1 NClLst=     1 CellRange=     0.0.
 One-electron integrals computed using PRISM.
 One-electron integral symmetry used in STVInt
 PrsmSu:  requested number of processors reduced to:   4 ShMem   1 Linda.
 PrsmSu:  requested number of processors reduced to:  21 ShMem   1 Linda.
 NBasis=    98 RedAO= T EigKep=  7.46D-04  NBF=    25     7     7     7     4    16    16    16
 NBsUse=    98 1.00D-06 EigRej= -1.00D+00 NBFU=    25     7     7     7     4    16    16    16
 Precomputing XC quadrature grid using
 IXCGrd= 4 IRadAn=           5 IRanWt=          -1 IRanGd=           0 AccXCQ= 0.00D+00.
 Generated NRdTot=       0 NPtTot=           0 NUsed=           0 NTot=          32
 NSgBfM=   121   121   121   121   121 MxSgAt=     1 MxSgA2=     1.
 Leave Link  302 at Sun Apr 18 13:06:06 2021, MaxMem=   104857600 cpu:             759.0 elap:              16.5
 (Enter /s/ls4/users/knvvv/bin/g16sse/l303.exe)
 DipDrv:  MaxL=1.
 Leave Link  303 at Sun Apr 18 13:06:09 2021, MaxMem=   104857600 cpu:              71.5 elap:               2.7
 (Enter /s/ls4/users/knvvv/bin/g16sse/l401.exe)
 SCF N**3 symmetry information disabled.
 ExpMin= 2.44D-02 ExpMax= 1.06D+07 ExpMxC= 1.21D+04 IAcc=3 IRadAn=         5 AccDes= 0.00D+00
 Harris functional with IExCor= 1009 and IRadAn=       5 diagonalized for initial guess.
 HarFok:  IExCor= 1009 AccDes= 0.00D+00 IRadAn=         5 IDoV= 1 UseB2=F ITyADJ=14
 ICtDFT=  3500011 ScaDFX=  1.000000  1.000000  1.000000  1.000000
 FoFCou: FMM=F IPFlag=           0 FMFlag=      100000 FMFlg1=           0
         NFxFlg=           0 DoJE=T BraDBF=F KetDBF=T FulRan=T
         wScrn=  0.000000 ICntrl=       500 IOpCl=  0 I1Cent=   200000004 NGrid=           0
         NMat0=    1 NMatS0=      1 NMatT0=    0 NMatD0=    1 NMtDS0=    0 NMtDT0=    0
 Petite list used in FoFCou.
 CoulSu:  requested number of processors reduced to:  21 ShMem   1 Linda.
 CoulSu:  requested number of processors reduced to:  21 ShMem   1 Linda.
 CoulSu:  requested number of processors reduced to:  21 ShMem   1 Linda.
 CoulSu:  requested number of processors reduced to:  21 ShMem   1 Linda.
 Harris En= -2573.76887860164    
 JPrj=0 DoOrth=F DoCkMO=F.
 Initial guess orbital symmetries:
 Alpha Orbitals:
       Occupied  (A1G) (A1G) (T1U) (T1U) (T1U) (A1G) (T1U) (T1U)
                 (T1U) (T2G) (T2G) (T2G) (EG) (EG) (A1G) (T1U)
                 (T1U) (T1U)
       Virtual   (A1G) (T1U) (T1U) (T1U) (T2G) (T2G) (T2G) (EG)
                 (EG) (T1U) (T1U) (T1U) (A1G) (T2G) (T2G) (T2G)
                 (EG) (EG) (T2U) (T2U) (T2U) (A2U) (T1U) (T1U)
                 (T1U) (T1U) (T1U) (T1U) (T2G) (T2G) (T2G) (EG)
                 (EG) (A1G) (T2U) (T2U) (T2U) (A2U) (T1U) (T1U)
                 (T1U) (T1G) (T1G) (T1G) (T2G) (T2G) (T2G) (EG)
                 (EG) (A1G) (T1U) (T1U) (T1U) (T2G) (T2G) (T2G)
                 (EG) (EG) (A1G) (T2U) (T2U) (T2U) (A2U) (T1U)
                 (T1U) (T1U) (T1U) (T1U) (T1U) (A1G) (T2U) (T2U)
                 (T2U) (A2U) (T1U) (T1U) (T1U) (A1G) (A1G) (A1G)
 Beta  Orbitals:
       Occupied  (A1G) (A1G) (T1U) (T1U) (T1U) (A1G) (T1U) (T1U)
                 (T1U) (T2G) (T2G) (T2G) (EG) (EG) (A1G) (T1U)
                 (T1U)
       Virtual   (T1U) (A1G) (T1U) (T1U) (T1U) (T2G) (T2G) (T2G)
                 (EG) (EG) (T1U) (T1U) (T1U) (A1G) (T2G) (T2G)
                 (T2G) (EG) (EG) (T2U) (T2U) (T2U) (A2U) (T1U)
                 (T1U) (T1U) (T1U) (T1U) (T1U) (T2G) (T2G) (T2G)
                 (EG) (EG) (A1G) (T2U) (T2U) (T2U) (A2U) (T1U)
                 (T1U) (T1U) (T1G) (T1G) (T1G) (T2G) (T2G) (T2G)
                 (EG) (EG) (A1G) (T1U) (T1U) (T1U) (T2G) (T2G)
                 (T2G) (EG) (EG) (A1G) (T2U) (T2U) (T2U) (A2U)
                 (T1U) (T1U) (T1U) (T1U) (T1U) (T1U) (A1G) (T2U)
                 (T2U) (T2U) (A2U) (T1U) (T1U) (T1U) (A1G) (A1G)
                 (A1G)
 Initial guess <Sx>= 0.0000 <Sy>= 0.0000 <Sz>= 0.5000 <S**2>= 0.7500 S= 0.5000
 Leave Link  401 at Sun Apr 18 13:06:11 2021, MaxMem=   104857600 cpu:              72.4 elap:               2.0
 (Enter /s/ls4/users/knvvv/bin/g16sse/l502.exe)
 Keep R1 and R2 ints in memory in symmetry-blocked form, NReq=66067984.
 FoFCou: FMM=F IPFlag=           0 FMFlag=           0 FMFlg1=           0
         NFxFlg=           0 DoJE=F BraDBF=F KetDBF=F FulRan=T
         wScrn=  0.000000 ICntrl=       600 IOpCl=  0 I1Cent=           0 NGrid=           0
         NMat0=    1 NMatS0=   4851 NMatT0=    0 NMatD0=    1 NMtDS0=    0 NMtDT0=    0
 Petite list used in FoFCou.
 CoulSu:  requested number of processors reduced to:  20 ShMem   1 Linda.
 UHF open shell SCF:
 Using DIIS extrapolation, IDIIS=  1040.
 NGot=   104857600 LenX=   101756724 LenY=   101741642
 Requested convergence on RMS density matrix=1.00D-08 within 128 cycles.
 Requested convergence on MAX density matrix=1.00D-06.
 Requested convergence on             energy=1.00D-06.
 No special actions if energy rises.

 Cycle   1  Pass 1  IDiag  1:
 Density matrix breaks symmetry, PCut= 1.00D-04
 Density has only Abelian symmetry.
 E= -2574.14995057562    
 DIIS: error= 1.45D-01 at cycle   1 NSaved=   1.
 NSaved= 1 IEnMin= 1 EnMin= -2574.14995057562     IErMin= 1 ErrMin= 1.45D-01
 ErrMax= 1.45D-01  0.00D+00 EMaxC= 1.00D-01 BMatC= 4.46D+00 BMatP= 4.46D+00
 IDIUse=3 WtCom= 0.00D+00 WtEn= 1.00D+00
 Coeff-Com:  0.100D+01
 Coeff-En:   0.100D+01
 Coeff:      0.100D+01
 Gap=     0.497 Goal=   None    Shift=    0.000
 Gap=     0.194 Goal=   None    Shift=    0.000
 GapD=    0.194 DampG=1.000 DampE=0.250 DampFc=0.2500 IDamp=-1.
 Damping current iteration by 2.50D-01
 RMSDP=3.69D-03 MaxDP=1.39D-01              OVMax= 5.59D-02

 Cycle   2  Pass 1  IDiag  1:
 Density matrix breaks symmetry, PCut= 1.00D-04
 Density has only Abelian symmetry.
 E= -2574.17030520965     Delta-E=       -0.020354634035 Rises=F Damp=T
 DIIS: error= 9.70D-02 at cycle   2 NSaved=   2.
 NSaved= 2 IEnMin= 2 EnMin= -2574.17030520965     IErMin= 2 ErrMin= 9.70D-02
 ErrMax= 9.70D-02  0.00D+00 EMaxC= 1.00D-01 BMatC= 2.09D+00 BMatP= 4.46D+00
 IDIUse=3 WtCom= 2.95D-02 WtEn= 9.70D-01
 Coeff-Com: -0.192D+01 0.292D+01
 Coeff-En:   0.000D+00 0.100D+01
 Coeff:     -0.568D-01 0.106D+01
 Gap=     0.420 Goal=   None    Shift=    0.000
 Gap=     0.191 Goal=   None    Shift=    0.000
 RMSDP=2.49D-03 MaxDP=9.69D-02 DE=-2.04D-02 OVMax= 1.12D-02

 Cycle   3  Pass 1  IDiag  1:
 Density matrix breaks symmetry, PCut= 1.00D-04
 Density has only Abelian symmetry.
 E= -2574.20217476994     Delta-E=       -0.031869560291 Rises=F Damp=F
 DIIS: error= 2.65D-02 at cycle   3 NSaved=   3.
 NSaved= 3 IEnMin= 3 EnMin= -2574.20217476994     IErMin= 3 ErrMin= 2.65D-02
 ErrMax= 2.65D-02  0.00D+00 EMaxC= 1.00D-01 BMatC= 2.35D-01 BMatP= 2.09D+00
 IDIUse=3 WtCom= 7.35D-01 WtEn= 2.65D-01
 Coeff-Com:  0.328D+01-0.437D+01 0.209D+01
 Coeff-En:   0.000D+00 0.000D+00 0.100D+01
 Coeff:      0.241D+01-0.321D+01 0.180D+01
 Gap=     0.407 Goal=   None    Shift=    0.000
 Gap=     0.194 Goal=   None    Shift=    0.000
 RMSDP=6.75D-04 MaxDP=1.56D-02 DE=-3.19D-02 OVMax= 1.51D-02

 Cycle   4  Pass 1  IDiag  1:
 Density matrix breaks symmetry, PCut= 1.00D-04
 Density has only Abelian symmetry.
 E= -2574.21032574379     Delta-E=       -0.008150973847 Rises=F Damp=F
 DIIS: error= 5.03D-03 at cycle   4 NSaved=   4.
 NSaved= 4 IEnMin= 4 EnMin= -2574.21032574379     IErMin= 4 ErrMin= 5.03D-03
 ErrMax= 5.03D-03  0.00D+00 EMaxC= 1.00D-01 BMatC= 1.09D-02 BMatP= 2.35D-01
 IDIUse=3 WtCom= 9.50D-01 WtEn= 5.03D-02
 Coeff-Com: -0.430D+00 0.575D+00-0.709D-01 0.926D+00
 Coeff-En:   0.000D+00 0.000D+00 0.000D+00 0.100D+01
 Coeff:     -0.409D+00 0.546D+00-0.673D-01 0.930D+00
 Gap=     0.410 Goal=   None    Shift=    0.000
 Gap=     0.195 Goal=   None    Shift=    0.000
 RMSDP=1.24D-04 MaxDP=2.78D-03 DE=-8.15D-03 OVMax= 3.10D-03

 Cycle   5  Pass 1  IDiag  1:
 Density matrix breaks symmetry, PCut= 1.00D-04
 Density has only Abelian symmetry.
 E= -2574.21073967953     Delta-E=       -0.000413935745 Rises=F Damp=F
 DIIS: error= 3.15D-04 at cycle   5 NSaved=   5.
 NSaved= 5 IEnMin= 5 EnMin= -2574.21073967953     IErMin= 5 ErrMin= 3.15D-04
 ErrMax= 3.15D-04  0.00D+00 EMaxC= 1.00D-01 BMatC= 4.58D-05 BMatP= 1.09D-02
 IDIUse=3 WtCom= 9.97D-01 WtEn= 3.15D-03
 Coeff-Com: -0.197D-01 0.259D-01-0.237D-01 0.147D-01 0.100D+01
 Coeff-En:   0.000D+00 0.000D+00 0.000D+00 0.000D+00 0.100D+01
 Coeff:     -0.197D-01 0.258D-01-0.236D-01 0.146D-01 0.100D+01
 Gap=     0.410 Goal=   None    Shift=    0.000
 DSYEVD-2 returned Info=         197 IAlg= 4 N=    98 NDim=    98 NE2=     1038179 trying  DSYEV.
 Gap=     0.195 Goal=   None    Shift=    0.000
 RMSDP=1.28D-05 MaxDP=5.13D-04 DE=-4.14D-04 OVMax= 4.11D-04

 Cycle   6  Pass 1  IDiag  1:
 Density matrix breaks symmetry, PCut= 1.00D-04
 Density has only Abelian symmetry.
 E= -2574.21074190289     Delta-E=       -0.000002223356 Rises=F Damp=F
 DIIS: error= 1.90D-05 at cycle   6 NSaved=   6.
 NSaved= 6 IEnMin= 6 EnMin= -2574.21074190289     IErMin= 6 ErrMin= 1.90D-05
 ErrMax= 1.90D-05  0.00D+00 EMaxC= 1.00D-01 BMatC= 1.08D-07 BMatP= 4.58D-05
 IDIUse=1 WtCom= 1.00D+00 WtEn= 0.00D+00
 Coeff-Com:  0.117D-01-0.155D-01 0.531D-02-0.207D-01-0.186D+00 0.121D+01
 Coeff:      0.117D-01-0.155D-01 0.531D-02-0.207D-01-0.186D+00 0.121D+01
 Gap=     0.410 Goal=   None    Shift=    0.000
 Gap=     0.195 Goal=   None    Shift=    0.000
 RMSDP=3.87D-06 MaxDP=1.92D-04 DE=-2.22D-06 OVMax= 1.22D-04

 Cycle   7  Pass 1  IDiag  1:
 Density matrix breaks symmetry, PCut= 1.00D-04
 Density has only Abelian symmetry.
 E= -2574.21074194530     Delta-E=       -0.000000042413 Rises=F Damp=F
 DIIS: error= 8.62D-06 at cycle   7 NSaved=   7.
 NSaved= 7 IEnMin= 7 EnMin= -2574.21074194530     IErMin= 7 ErrMin= 8.62D-06
 ErrMax= 8.62D-06  0.00D+00 EMaxC= 1.00D-01 BMatC= 1.91D-08 BMatP= 1.08D-07
 IDIUse=1 WtCom= 1.00D+00 WtEn= 0.00D+00
 Coeff-Com:  0.735D-03-0.969D-03 0.486D-04-0.507D-02-0.338D-01 0.172D+00
 Coeff-Com:  0.867D+00
 Coeff:      0.735D-03-0.969D-03 0.486D-04-0.507D-02-0.338D-01 0.172D+00
 Coeff:      0.867D+00
 Gap=     0.410 Goal=   None    Shift=    0.000
 Gap=     0.195 Goal=   None    Shift=    0.000
 RMSDP=4.56D-07 MaxDP=1.46D-05 DE=-4.24D-08 OVMax= 2.23D-05

 Cycle   8  Pass 1  IDiag  1:
 Density matrix breaks symmetry, PCut= 1.00D-04
 Density has only Abelian symmetry.
 E= -2574.21074194716     Delta-E=       -0.000000001859 Rises=F Damp=F
 DIIS: error= 8.04D-07 at cycle   8 NSaved=   8.
 NSaved= 8 IEnMin= 8 EnMin= -2574.21074194716     IErMin= 8 ErrMin= 8.04D-07
 ErrMax= 8.04D-07  0.00D+00 EMaxC= 1.00D-01 BMatC= 1.16D-10 BMatP= 1.91D-08
 IDIUse=1 WtCom= 1.00D+00 WtEn= 0.00D+00
 Coeff-Com:  0.438D-04-0.610D-04 0.893D-04 0.100D-02 0.916D-02-0.577D-01
 Coeff-Com: -0.117D+00 0.116D+01
 Coeff:      0.438D-04-0.610D-04 0.893D-04 0.100D-02 0.916D-02-0.577D-01
 Coeff:     -0.117D+00 0.116D+01
 Gap=     0.410 Goal=   None    Shift=    0.000
 Gap=     0.195 Goal=   None    Shift=    0.000
 RMSDP=1.11D-07 MaxDP=4.62D-06 DE=-1.86D-09 OVMax= 4.46D-06

 Cycle   9  Pass 1  IDiag  1:
 Density matrix breaks symmetry, PCut= 1.00D-04
 Density has only Abelian symmetry.
 E= -2574.21074194721     Delta-E=       -0.000000000052 Rises=F Damp=F
 DIIS: error= 1.11D-07 at cycle   9 NSaved=   9.
 NSaved= 9 IEnMin= 9 EnMin= -2574.21074194721     IErMin= 9 ErrMin= 1.11D-07
 ErrMax= 1.11D-07  0.00D+00 EMaxC= 1.00D-01 BMatC= 3.75D-12 BMatP= 1.16D-10
 IDIUse=1 WtCom= 1.00D+00 WtEn= 0.00D+00
 Coeff-Com: -0.388D-04 0.519D-04-0.261D-04-0.559D-04-0.739D-03 0.649D-02
 Coeff-Com: -0.710D-02-0.233D+00 0.123D+01
 Coeff:     -0.388D-04 0.519D-04-0.261D-04-0.559D-04-0.739D-03 0.649D-02
 Coeff:     -0.710D-02-0.233D+00 0.123D+01
 Gap=     0.410 Goal=   None    Shift=    0.000
 Gap=     0.195 Goal=   None    Shift=    0.000
 RMSDP=1.62D-08 MaxDP=4.78D-07 DE=-5.18D-11 OVMax= 6.17D-07

 Cycle  10  Pass 1  IDiag  1:
 Density matrix breaks symmetry, PCut= 1.00D-04
 Density has only Abelian symmetry.
 E= -2574.21074194722     Delta-E=       -0.000000000007 Rises=F Damp=F
 DIIS: error= 2.07D-08 at cycle  10 NSaved=  10.
 NSaved=10 IEnMin=10 EnMin= -2574.21074194722     IErMin=10 ErrMin= 2.07D-08
 ErrMax= 2.07D-08  0.00D+00 EMaxC= 1.00D-01 BMatC= 8.98D-14 BMatP= 3.75D-12
 IDIUse=1 WtCom= 1.00D+00 WtEn= 0.00D+00
 Coeff-Com: -0.147D-05 0.195D-05 0.968D-06 0.133D-04 0.568D-04-0.768D-03
 Coeff-Com:  0.302D-02 0.301D-01-0.204D+00 0.117D+01
 Coeff:     -0.147D-05 0.195D-05 0.968D-06 0.133D-04 0.568D-04-0.768D-03
 Coeff:      0.302D-02 0.301D-01-0.204D+00 0.117D+01
 Gap=     0.410 Goal=   None    Shift=    0.000
 Gap=     0.195 Goal=   None    Shift=    0.000
 RMSDP=1.47D-09 MaxDP=5.53D-08 DE=-7.28D-12 OVMax= 8.23D-08

 Density matrix breaks symmetry, PCut= 1.00D-04
 Density has only Abelian symmetry.
 SCF Done:  E(UM062X) =  -2574.21074195     A.U. after   10 cycles
            NFock= 10  Conv=0.15D-08     -V/T= 2.0020
 <Sx>= 0.0000 <Sy>= 0.0000 <Sz>= 0.5000 <S**2>= 0.7536 S= 0.5018
 <L.S>= 0.000000000000E+00
 KE= 2.568955453226D+03 PE=-6.150827564088D+03 EE= 1.007661368915D+03
 Annihilation of the first spin contaminant:
 S**2 before annihilation     0.7536,   after     0.7500
 Leave Link  502 at Sun Apr 18 13:06:18 2021, MaxMem=   104857600 cpu:             224.4 elap:               5.9
 (Enter /s/ls4/users/knvvv/bin/g16sse/l601.exe)
 Copying SCF densities to generalized density rwf, IOpCl= 1 IROHF=0.
 SCF density gives NOpUse=  8 NOpAll= 48.
 Marking SCF density as not fully symmetric.

 **********************************************************************

            Population analysis using the SCF density.

 **********************************************************************

 Orbital symmetries:
 Alpha Orbitals:
       Occupied  (A1G) (A1G) (T1U) (T1U) (T1U) (A1G) (T1U) (T1U)
                 (T1U) (EG) (T2G) (T2G) (T2G) (EG) (?A) (?B) (?B)
                 (?B)
       Virtual   (?B) (?B) (?B) (A1G) (?A) (?C) (?C) (?C) (?A)
                 (?B) (?B) (?B) (?A) (?A) (?C) (?C) (?C) (?A) (?B)
                 (?B) (?B) (?B) (?B) (?B) (?B) (?B) (?B) (?B) (?A)
                 (?C) (?C) (?C) (?A) (?A) (?B) (?B) (?B) (?A) (?C)
                 (?C) (?C) (?A) (?B) (A2U) (?C) (?C) (?B) (?B)
                 (?C) (?A) (T1U) (T1U) (T1U) (?A) (T2G) (T2G) (T2G)
                 (?A) (A1G) (?D) (?D) (?D) (?D) (?D) (?D) (?D)
                 (T1U) (T1U) (T1U) (A1G) (?E) (?E) (?E) (?E) (A2U)
                 (?E) (?E) (A1G) (A1G) (A1G)
 Beta  Orbitals:
       Occupied  (A1G) (A1G) (T1U) (T1U) (T1U) (A1G) (T1U) (T1U)
                 (T1U) (EG) (T2G) (T2G) (T2G) (EG) (?A) (?B) (?B)
       Virtual   (?B) (?A) (?B) (?B) (?B) (?A) (?C) (?C) (?A) (?C)
                 (?B) (?B) (?B) (?A) (?C) (?C) (?A) (?C) (?A) (?B)
                 (?B) (?B) (A2U) (?B) (?B) (?B) (?B) (?B) (?B)
                 (?A) (T2G) (T2G) (?A) (T2G) (?A) (?A) (?A) (?A)
                 (?B) (?A) (?A) (?A) (?A) (?B) (?B) (?B) (?B) (?A)
                 (?A) (A2U) (?B) (?B) (?B) (?B) (T2G) (T2G) (T2G)
                 (T2G) (T2G) (T2G) (?D) (?D) (?D) (A2U) (?D) (?D)
                 (?D) (T1U) (T1U) (T1U) (A1G) (?D) (?D) (?D) (?D)
                 (A2U) (?D) (?D) (A1G) (A1G) (A1G)
 Unable to determine electronic state:  an orbital has unidentified symmetry.
 Alpha  occ. eigenvalues -- -485.43204 -63.38231 -57.21108 -57.20382 -57.20382
 Alpha  occ. eigenvalues --   -9.05402  -6.88699  -6.86643  -6.86643  -2.91579
 Alpha  occ. eigenvalues --   -2.91068  -2.91068  -2.89551  -2.89551  -0.88307
 Alpha  occ. eigenvalues --   -0.42846  -0.38448  -0.38448
 Alpha virt. eigenvalues --    0.02573   0.03097   0.03097   0.04293   0.15018
 Alpha virt. eigenvalues --    0.15195   0.15195   0.15616   0.15616   0.28257
 Alpha virt. eigenvalues --    0.28394   0.28394   0.42249   0.46702   0.47467
 Alpha virt. eigenvalues --    0.47467   0.49237   0.49237   0.97866   0.98382
 Alpha virt. eigenvalues --    0.98382   0.99485   0.99485   1.01170   1.01170
 Alpha virt. eigenvalues --    1.09745   1.13066   1.13066   1.56669   1.57716
 Alpha virt. eigenvalues --    1.57716   1.60728   1.60728   1.81731   2.62087
 Alpha virt. eigenvalues --    2.62735   2.62735   2.62839   2.63277   2.63277
 Alpha virt. eigenvalues --    2.64317   2.64317   2.64703   2.64703   2.65943
 Alpha virt. eigenvalues --    2.65943   2.68026   2.68026   2.68262   2.68262
 Alpha virt. eigenvalues --    3.95376   4.00919   4.00919   5.08510   5.09657
 Alpha virt. eigenvalues --    5.09657   5.13335   5.13335   7.68642   9.45305
 Alpha virt. eigenvalues --    9.45621   9.45621   9.46567   9.46567   9.48139
 Alpha virt. eigenvalues --    9.48139  13.52372  13.56621  13.56621  28.92372
 Alpha virt. eigenvalues --   34.34938  34.35139  34.35139  34.35744  34.35744
 Alpha virt. eigenvalues --   34.36744  34.36744  94.71426 321.818161816.98750
  Beta  occ. eigenvalues -- -485.42814 -63.38023 -57.20293 -57.20271 -57.20271
  Beta  occ. eigenvalues --   -9.04952  -6.87145  -6.86511  -6.86511  -2.90929
  Beta  occ. eigenvalues --   -2.90487  -2.90487  -2.89509  -2.89509  -0.81599
  Beta  occ. eigenvalues --   -0.36696  -0.36696
  Beta virt. eigenvalues --   -0.17211   0.02883   0.03163   0.03163   0.03726
  Beta virt. eigenvalues --    0.12447   0.14221   0.14221   0.15592   0.15592
  Beta virt. eigenvalues --    0.25180   0.27894   0.27894   0.42234   0.49240
  Beta virt. eigenvalues --    0.49240   0.49977   0.49977   0.50118   0.96509
  Beta virt. eigenvalues --    0.99653   0.99653   1.00133   1.00133   1.01324
  Beta virt. eigenvalues --    1.01324   1.12603   1.13799   1.13799   1.59057
  Beta virt. eigenvalues --    1.60577   1.60577   1.61440   1.61440   1.84927
  Beta virt. eigenvalues --    2.65242   2.67076   2.67076   2.67117   2.68267
  Beta virt. eigenvalues --    2.68267   2.68614   2.68614   2.68669   2.68669
  Beta virt. eigenvalues --    2.68705   2.68705   2.69142   2.69142   2.69643
  Beta virt. eigenvalues --    2.69643   3.97346   4.01582   4.01582   5.09624
  Beta virt. eigenvalues --    5.12234   5.12234   5.13790   5.13790   7.70918
  Beta virt. eigenvalues --    9.46422   9.46483   9.46483   9.46999   9.46999
  Beta virt. eigenvalues --    9.48187   9.48187  13.59358  13.59358  13.60694
  Beta virt. eigenvalues --   28.92433  34.35267  34.35358  34.35358  34.35824
  Beta virt. eigenvalues --   34.35824  34.36754  34.36754  94.72006 321.82289
  Beta virt. eigenvalues -- 1816.99070
          Condensed to atoms (all electrons):
               1
     1  Br  35.000000
          Atomic-Atomic Spin Densities.
               1
     1  Br   1.000000
 Mulliken charges and spin densities:
               1          2
     1  Br  -0.000000   1.000000
 Sum of Mulliken charges =  -0.00000   1.00000
 Mulliken charges and spin densities with hydrogens summed into heavy atoms:
               1          2
     1  Br  -0.000000   1.000000
 Electronic spatial extent (au):  <R**2>=             40.5413
 Charge=             -0.0000 electrons
 Dipole moment (field-independent basis, Debye):
    X=              0.0000    Y=              0.0000    Z=             -0.0000  Tot=              0.0000
 Quadrupole moment (field-independent basis, Debye-Ang):
   XX=            -16.3920   YY=            -19.0687   ZZ=            -19.0687
   XY=              0.0000   XZ=             -0.0000   YZ=             -0.0000
 Traceless Quadrupole moment (field-independent basis, Debye-Ang):
   XX=              1.7845   YY=             -0.8923   ZZ=             -0.8923
   XY=              0.0000   XZ=             -0.0000   YZ=             -0.0000
 Octapole moment (field-independent basis, Debye-Ang**2):
  XXX=              0.0000  YYY=              0.0000  ZZZ=             -0.0000  XYY=             -0.0000
  XXY=              0.0000  XXZ=             -0.0000  XZZ=              0.0000  YZZ=             -0.0000
  YYZ=              0.0000  XYZ=              0.0000
 Hexadecapole moment (field-independent basis, Debye-Ang**3):
 XXXX=            -17.3696 YYYY=            -24.2758 ZZZZ=            -24.2758 XXXY=              0.0000
 XXXZ=             -0.0000 YYYX=              0.0000 YYYZ=              0.0000 ZZZX=             -0.0000
 ZZZY=             -0.0000 XXYY=             -6.9549 XXZZ=             -6.9549 YYZZ=             -8.0919
 XXYZ=             -0.0000 YYXZ=             -0.0000 ZZXY=              0.0000
 N-N= 0.000000000000D+00 E-N=-6.150827561739D+03  KE= 2.568955453226D+03
                          Isotropic Fermi Contact Couplings
        Atom                 a.u.       MegaHertz       Gauss      10(-4) cm-1
     1  Br(79)             0.08042      90.36796      32.24554      30.14351
 PrsmSu:  requested number of processors reduced to:  21 ShMem   1 Linda.
 --------------------------------------------------------
       Center         ----  Spin Dipole Couplings  ----
                      3XX-RR        3YY-RR        3ZZ-RR
 --------------------------------------------------------
     1   Atom       10.266042     -5.133021     -5.133021
 --------------------------------------------------------
                        XY            XZ            YZ
 --------------------------------------------------------
     1   Atom        0.000000      0.000000      0.000000
 --------------------------------------------------------


 ---------------------------------------------------------------------------------
              Anisotropic Spin Dipole Couplings in Principal Axis System
 ---------------------------------------------------------------------------------

       Atom             a.u.   MegaHertz   Gauss  10(-4) cm-1        Axes

              Baa    -5.1330  -688.530  -245.685  -229.669  0.0000  0.0000  1.0000
     1 Br(79) Bbb    -5.1330  -688.530  -245.685  -229.669 -0.0000  1.0000  0.0000
              Bcc    10.2660  1377.059   491.369   459.338  1.0000  0.0000  0.0000
 

 ---------------------------------------------------------------------------------

 PrsmSu:  requested number of processors reduced to:  21 ShMem   1 Linda.
 No NMR shielding tensors so no spin-rotation constants.
 Leave Link  601 at Sun Apr 18 13:06:29 2021, MaxMem=   104857600 cpu:             505.9 elap:              11.0
 (Enter /s/ls4/users/knvvv/bin/g16sse/l801.exe)
 DoSCS=F DFT=T ScalE2(SS,OS)=  1.000000  1.000000
 Range of M.O.s used for correlation:     1    98
 NBasis=    98 NAE=    18 NBE=    17 NFC=     0 NFV=     0
 NROrb=     98 NOA=    18 NOB=    17 NVA=    80 NVB=    81

 **** Warning!!: The largest alpha MO coefficient is  0.14170538D+02


 **** Warning!!: The largest beta MO coefficient is  0.14170442D+02

 Leave Link  801 at Sun Apr 18 13:06:29 2021, MaxMem=   104857600 cpu:               6.7 elap:               0.2
 (Enter /s/ls4/users/knvvv/bin/g16sse/l914.exe)
 UHF ground state
 Doing stability rather than CIS.
 Two-electron integrals replicated using symmetry.
 MDV=   104857600 DFT=T DoStab=T Mixed=T DoRPA=F DoScal=F NonHer=F
 Making orbital integer symmetry assigments:
 Orbital symmetries:
 Alpha Orbitals:
       Occupied  (A1G) (A1G) (T1U) (T1U) (T1U) (A1G) (T1U) (T1U)
                 (T1U) (EG) (T2G) (T2G) (T2G) (EG) (?A) (?B) (?B)
                 (?B)
       Virtual   (?B) (?B) (?B) (A1G) (?A) (?C) (?C) (?C) (?A)
                 (?B) (?B) (?B) (?A) (?A) (?C) (?C) (?C) (?A) (?B)
                 (?B) (?B) (?B) (?B) (?B) (?B) (?B) (?B) (?B) (?A)
                 (?C) (?C) (?C) (?A) (?A) (?B) (?B) (?B) (?A) (?C)
                 (?C) (?C) (?A) (?B) (A2U) (?C) (?C) (?B) (?B)
                 (?C) (?A) (T1U) (T1U) (T1U) (?A) (T2G) (T2G) (T2G)
                 (?A) (A1G) (?D) (?D) (?D) (?D) (?D) (?D) (?D)
                 (T1U) (T1U) (T1U) (A1G) (?E) (?E) (?E) (?E) (A2U)
                 (?E) (?E) (A1G) (A1G) (A1G)
 Beta  Orbitals:
       Occupied  (A1G) (A1G) (T1U) (T1U) (T1U) (A1G) (T1U) (T1U)
                 (T1U) (EG) (T2G) (T2G) (T2G) (EG) (?A) (?B) (?B)
       Virtual   (?B) (?A) (?B) (?B) (?B) (?A) (?C) (?C) (?A) (?C)
                 (?B) (?B) (?B) (?A) (?C) (?C) (?A) (?C) (?A) (?B)
                 (?B) (?B) (A2U) (?B) (?B) (?B) (?B) (?B) (?B)
                 (?A) (T2G) (T2G) (?A) (T2G) (?A) (?A) (?A) (?A)
                 (?B) (?A) (?A) (?A) (?A) (?B) (?B) (?B) (?B) (?A)
                 (?A) (A2U) (?B) (?B) (?B) (?B) (T2G) (T2G) (T2G)
                 (T2G) (T2G) (T2G) (?D) (?D) (?D) (A2U) (?D) (?D)
                 (?D) (T1U) (T1U) (T1U) (A1G) (?D) (?D) (?D) (?D)
                 (A2U) (?D) (?D) (A1G) (A1G) (A1G)
    24 initial guesses have been made.
 Convergence on wavefunction:    0.001000000000000
 Davidson Disk Diagonalization:  ConvIn= 1.00D-03 SkipCon=T Conv= 1.00D-03.
 Max sub-space:  2000 roots to seek:    24 dimension of matrix:         2817
 Iteration     1 Dimension    24 NMult     0 NNew     24
 Estimated number of processors is:   20
 CISAX will form     1 AO SS matrices at one time.
 NMat=     1 NSing=     1 JSym2X= 2.
 FoFJK:  IHMeth= 1 ICntrl=       0 DoSepK=F KAlg= 0 I1Cent=           0 FoldK=F
 IRaf= 990000000 NMat=       1 IRICut=       1 DoRegI=T DoRafI=F ISym2E= 2 IDoP0=0 IntGTp=1.
 FoFCou: FMM=F IPFlag=           0 FMFlag=      100000 FMFlg1=           0
         NFxFlg=           0 DoJE=F BraDBF=F KetDBF=F FulRan=T
         wScrn=  0.000000 ICntrl=         0 IOpCl=  1 I1Cent=           0 NGrid=           0
         NMat0=    1 NMatS0=      1 NMatT0=    0 NMatD0=    1 NMtDS0=    0 NMtDT0=    0
 Integrals replicated using symmetry in FoFCou.
 CoulSu:  requested number of processors reduced to:  20 ShMem   1 Linda.
 NMat=     1 NSing=     1 JSym2X= 2.
 CoulSu:  requested number of processors reduced to:  20 ShMem   1 Linda.
 NMat=     1 NSing=     1 JSym2X= 2.
 CoulSu:  requested number of processors reduced to:  20 ShMem   1 Linda.
 NMat=     1 NSing=     1 JSym2X= 2.
 CoulSu:  requested number of processors reduced to:  20 ShMem   1 Linda.
 NMat=     1 NSing=     1 JSym2X= 2.
 CoulSu:  requested number of processors reduced to:  20 ShMem   1 Linda.
 NMat=     1 NSing=     1 JSym2X= 2.
 CoulSu:  requested number of processors reduced to:  20 ShMem   1 Linda.
 NMat=     1 NSing=     1 JSym2X= 2.
 CoulSu:  requested number of processors reduced to:  20 ShMem   1 Linda.
 NMat=     1 NSing=     1 JSym2X= 2.
 CoulSu:  requested number of processors reduced to:  20 ShMem   1 Linda.
 NMat=     1 NSing=     1 JSym2X= 2.
 CoulSu:  requested number of processors reduced to:  20 ShMem   1 Linda.
 NMat=     1 NSing=     1 JSym2X= 2.
 CoulSu:  requested number of processors reduced to:  20 ShMem   1 Linda.
 NMat=     1 NSing=     1 JSym2X= 2.
 CoulSu:  requested number of processors reduced to:  20 ShMem   1 Linda.
 NMat=     1 NSing=     1 JSym2X= 2.
 CoulSu:  requested number of processors reduced to:  20 ShMem   1 Linda.
 NMat=     1 NSing=     1 JSym2X= 2.
 CoulSu:  requested number of processors reduced to:  20 ShMem   1 Linda.
 NMat=     1 NSing=     1 JSym2X= 2.
 CoulSu:  requested number of processors reduced to:  20 ShMem   1 Linda.
 NMat=     1 NSing=     1 JSym2X= 2.
 CoulSu:  requested number of processors reduced to:  20 ShMem   1 Linda.
 NMat=     1 NSing=     1 JSym2X= 2.
 CoulSu:  requested number of processors reduced to:  20 ShMem   1 Linda.
 NMat=     1 NSing=     1 JSym2X= 2.
 CoulSu:  requested number of processors reduced to:  20 ShMem   1 Linda.
 NMat=     1 NSing=     1 JSym2X= 2.
 CoulSu:  requested number of processors reduced to:  20 ShMem   1 Linda.
 NMat=     1 NSing=     1 JSym2X= 2.
 CoulSu:  requested number of processors reduced to:  20 ShMem   1 Linda.
 NMat=     1 NSing=     1 JSym2X= 2.
 CoulSu:  requested number of processors reduced to:  20 ShMem   1 Linda.
 NMat=     1 NSing=     1 JSym2X= 2.
 CoulSu:  requested number of processors reduced to:  20 ShMem   1 Linda.
 NMat=     1 NSing=     1 JSym2X= 2.
 CoulSu:  requested number of processors reduced to:  20 ShMem   1 Linda.
 NMat=     1 NSing=     1 JSym2X= 2.
 CoulSu:  requested number of processors reduced to:  20 ShMem   1 Linda.
 NMat=     1 NSing=     1 JSym2X= 2.
 CoulSu:  requested number of processors reduced to:  20 ShMem   1 Linda.
 New state      1 was old state      2
 Excitation Energies [eV] at current iteration:
 Root      1 :     0.433600369341578
 Root      2 :     0.433600369342635
 Root      3 :     8.325716113493087
 Root      4 :     8.325716113501311
 Root      5 :     8.839929971028733
 Root      6 :     8.864347164895815
 Root      7 :     8.864347165032259
 Root      8 :     8.889729107992105
 Root      9 :     8.889750663802587
 Root     10 :     8.938401239666607
 Root     11 :     8.938401239671018
 Root     12 :     9.029521496726861
 Root     13 :     9.200220241278974
 Root     14 :     9.200220241397050
 Root     15 :     9.297754087267526
 Root     16 :     9.361913751052013
 Root     17 :     9.361914121013003
 Root     18 :     9.831839812630397
 Root     19 :     9.983021499098845
 Root     20 :    10.516000548029960
 Root     21 :    10.516000548060340
 Root     22 :    10.767254426108490
 Root     23 :    10.783248674904940
 Root     24 :    10.783248674905650
 Iteration     2 Dimension    48 NMult    24 NNew     24
 Estimated number of processors is:   20
 CISAX will form     1 AO SS matrices at one time.
 NMat=     1 NSing=     1 JSym2X= 2.
 CoulSu:  requested number of processors reduced to:  20 ShMem   1 Linda.
 NMat=     1 NSing=     1 JSym2X= 2.
 CoulSu:  requested number of processors reduced to:  20 ShMem   1 Linda.
 NMat=     1 NSing=     1 JSym2X= 2.
 CoulSu:  requested number of processors reduced to:  20 ShMem   1 Linda.
 NMat=     1 NSing=     1 JSym2X= 2.
 CoulSu:  requested number of processors reduced to:  20 ShMem   1 Linda.
 NMat=     1 NSing=     1 JSym2X= 2.
 CoulSu:  requested number of processors reduced to:  20 ShMem   1 Linda.
 NMat=     1 NSing=     1 JSym2X= 2.
 CoulSu:  requested number of processors reduced to:  20 ShMem   1 Linda.
 NMat=     1 NSing=     1 JSym2X= 2.
 CoulSu:  requested number of processors reduced to:  20 ShMem   1 Linda.
 NMat=     1 NSing=     1 JSym2X= 2.
 CoulSu:  requested number of processors reduced to:  20 ShMem   1 Linda.
 NMat=     1 NSing=     1 JSym2X= 2.
 CoulSu:  requested number of processors reduced to:  20 ShMem   1 Linda.
 NMat=     1 NSing=     1 JSym2X= 2.
 CoulSu:  requested number of processors reduced to:  20 ShMem   1 Linda.
 NMat=     1 NSing=     1 JSym2X= 2.
 CoulSu:  requested number of processors reduced to:  20 ShMem   1 Linda.
 NMat=     1 NSing=     1 JSym2X= 2.
 CoulSu:  requested number of processors reduced to:  20 ShMem   1 Linda.
 NMat=     1 NSing=     1 JSym2X= 2.
 CoulSu:  requested number of processors reduced to:  20 ShMem   1 Linda.
 NMat=     1 NSing=     1 JSym2X= 2.
 CoulSu:  requested number of processors reduced to:  20 ShMem   1 Linda.
 NMat=     1 NSing=     1 JSym2X= 2.
 CoulSu:  requested number of processors reduced to:  20 ShMem   1 Linda.
 NMat=     1 NSing=     1 JSym2X= 2.
 CoulSu:  requested number of processors reduced to:  20 ShMem   1 Linda.
 NMat=     1 NSing=     1 JSym2X= 2.
 CoulSu:  requested number of processors reduced to:  20 ShMem   1 Linda.
 NMat=     1 NSing=     1 JSym2X= 2.
 CoulSu:  requested number of processors reduced to:  20 ShMem   1 Linda.
 NMat=     1 NSing=     1 JSym2X= 2.
 CoulSu:  requested number of processors reduced to:  20 ShMem   1 Linda.
 NMat=     1 NSing=     1 JSym2X= 2.
 CoulSu:  requested number of processors reduced to:  20 ShMem   1 Linda.
 NMat=     1 NSing=     1 JSym2X= 2.
 CoulSu:  requested number of processors reduced to:  20 ShMem   1 Linda.
 NMat=     1 NSing=     1 JSym2X= 2.
 CoulSu:  requested number of processors reduced to:  20 ShMem   1 Linda.
 NMat=     1 NSing=     1 JSym2X= 2.
 CoulSu:  requested number of processors reduced to:  20 ShMem   1 Linda.
 NMat=     1 NSing=     1 JSym2X= 2.
 CoulSu:  requested number of processors reduced to:  20 ShMem   1 Linda.
 Root      1 not converged, maximum delta is    0.099212959173733
 Excitation Energies [eV] at current iteration:
 Root      1 :     0.006748888970793   Change is   -0.426851480370785
 Root      2 :     0.006748888972424   Change is   -0.426851480370211
 Root      3 :     8.153686897616634   Change is   -0.172029215876454
 Root      4 :     8.153686897623080   Change is   -0.172029215878230
 Root      5 :     8.735235459498284   Change is   -0.203165780168324
 Root      6 :     8.735235459501087   Change is   -0.203165780169931
 Root      7 :     8.782810528193988   Change is   -0.106918579798117
 Root      8 :     8.782829966577808   Change is   -0.106920697224781
 Root      9 :     8.795681824575773   Change is   -0.044248146452960
 Root     10 :     8.808323791347201   Change is   -0.056023373548615
 Root     11 :     8.808323791459415   Change is   -0.056023373572844
 Root     12 :     8.938831721719884   Change is   -0.090689775006977
 Root     13 :     9.127561416384756   Change is   -0.072658824894217
 Root     14 :     9.127561416491593   Change is   -0.072658824905456
 Root     15 :     9.254656264837763   Change is   -0.043097822429763
 Root     16 :     9.266132748974670   Change is   -0.095781002077342
 Root     17 :     9.266133004362834   Change is   -0.095781116650170
 Root     18 :     9.664874435247915   Change is   -0.166965377382482
 Root     19 :     9.795929257656454   Change is   -0.187092241442391
 Root     20 :    10.432792243930570   Change is   -0.083208304099386
 Root     21 :    10.432792243951180   Change is   -0.083208304109156
 Root     22 :    10.552529359725020   Change is   -0.230719315179919
 Root     23 :    10.552529359725240   Change is   -0.230719315180409
 Root     24 :    10.570727429659940   Change is   -0.196526996448549
 Iteration     3 Dimension    51 NMult    48 NNew      3
 Estimated number of processors is:   20
 CISAX will form     1 AO SS matrices at one time.
 NMat=     1 NSing=     1 JSym2X= 2.
 CoulSu:  requested number of processors reduced to:  20 ShMem   1 Linda.
 NMat=     1 NSing=     1 JSym2X= 2.
 CoulSu:  requested number of processors reduced to:  20 ShMem   1 Linda.
 NMat=     1 NSing=     1 JSym2X= 2.
 CoulSu:  requested number of processors reduced to:  20 ShMem   1 Linda.
 Root      1 not converged, maximum delta is    0.105309384781917
 Excitation Energies [eV] at current iteration:
 Root      1 :     0.000021844124001   Change is   -0.006727044846791
 Root      2 :     0.000021844124189   Change is   -0.006727044848235
 Root      3 :     8.143581360674951   Change is   -0.010105536941683
 Iteration     4 Dimension    54 NMult    51 NNew      3
 Estimated number of processors is:   20
 CISAX will form     1 AO SS matrices at one time.
 NMat=     1 NSing=     1 JSym2X= 2.
 CoulSu:  requested number of processors reduced to:  20 ShMem   1 Linda.
 NMat=     1 NSing=     1 JSym2X= 2.
 CoulSu:  requested number of processors reduced to:  20 ShMem   1 Linda.
 NMat=     1 NSing=     1 JSym2X= 2.
 CoulSu:  requested number of processors reduced to:  20 ShMem   1 Linda.
 Root      1 not converged, maximum delta is    0.122492496870959
 Excitation Energies [eV] at current iteration:
 Root      1 :    -0.000000993335080   Change is   -0.000022837459081
 Root      2 :    -0.000000993334926   Change is   -0.000022837459115
 Root      3 :     8.142801154154567   Change is   -0.000780206520384
 Iteration     5 Dimension    57 NMult    54 NNew      3
 Estimated number of processors is:   20
 CISAX will form     1 AO SS matrices at one time.
 NMat=     1 NSing=     1 JSym2X= 2.
 CoulSu:  requested number of processors reduced to:  20 ShMem   1 Linda.
 NMat=     1 NSing=     1 JSym2X= 2.
 CoulSu:  requested number of processors reduced to:  20 ShMem   1 Linda.
 NMat=     1 NSing=     1 JSym2X= 2.
 CoulSu:  requested number of processors reduced to:  20 ShMem   1 Linda.
 Root      1 not converged, maximum delta is    0.119955885918621
 Excitation Energies [eV] at current iteration:
 Root      1 :    -0.000001060445484   Change is   -0.000000067110404
 Root      2 :    -0.000001060445288   Change is   -0.000000067110362
 Root      3 :     8.142694860201804   Change is   -0.000106293952763
 Iteration     6 Dimension    58 NMult    57 NNew      1
 Estimated number of processors is:   20
 CISAX will form     1 AO SS matrices at one time.
 NMat=     1 NSing=     1 JSym2X= 2.
 CoulSu:  requested number of processors reduced to:  20 ShMem   1 Linda.
 Root      1 not converged, maximum delta is    0.497929889487400
 Excitation Energies [eV] at current iteration:
 Root      1 :    -0.000001060445375   Change is    0.000000000000109
 Root      2 :    -0.000001060445357   Change is   -0.000000000000069
 Root      3 :     8.142688737592989   Change is   -0.000006122608814
 Iteration     7 Dimension    59 NMult    58 NNew      1
 Estimated number of processors is:   20
 CISAX will form     1 AO SS matrices at one time.
 NMat=     1 NSing=     1 JSym2X= 2.
 CoulSu:  requested number of processors reduced to:  20 ShMem   1 Linda.
 Root      1 not converged, maximum delta is    0.500389466375907
 Excitation Energies [eV] at current iteration:
 Root      1 :    -0.000001060445460   Change is   -0.000000000000085
 Root      2 :    -0.000001060445248   Change is    0.000000000000109
 Root      3 :     8.142688534003566   Change is   -0.000000203589423
 Iteration     8 Dimension    60 NMult    59 NNew      1
 Estimated number of processors is:   20
 CISAX will form     1 AO SS matrices at one time.
 NMat=     1 NSing=     1 JSym2X= 2.
 CoulSu:  requested number of processors reduced to:  20 ShMem   1 Linda.
 Root      1 not converged, maximum delta is    0.488905968574184
 Excitation Energies [eV] at current iteration:
 Root      1 :    -0.000001060445421   Change is    0.000000000000039
 Root      2 :    -0.000001060445345   Change is   -0.000000000000097
 Root      3 :     8.142688505799033   Change is   -0.000000028204534
 Iteration     9 Dimension    61 NMult    60 NNew      1
 Estimated number of processors is:   20
 CISAX will form     1 AO SS matrices at one time.
 NMat=     1 NSing=     1 JSym2X= 2.
 CoulSu:  requested number of processors reduced to:  20 ShMem   1 Linda.
 Root      1 not converged, maximum delta is    0.189590024993974
 Excitation Energies [eV] at current iteration:
 Root      1 :    -0.000001060445469   Change is   -0.000000000000048
 Root      2 :    -0.000001060445312   Change is    0.000000000000033
 Root      3 :     8.142688505443935   Change is   -0.000000000355097
 Convergence achieved on expansion vectors.
 ***********************************************************************
 Stability analysis using <AA,BB:AA,BB> singles matrix:
 ***********************************************************************
 1PDM for each excited state written to RWF  633
 Ground to excited state transition densities written to RWF  633

 Eigenvectors of the stability matrix:
 
 Excited state symmetry could not be determined.
 Eigenvector   1:  2.012-?Sym  Eigenvalue=-0.0000000  <S**2>=0.762
     16B -> 18B        0.97927
     16B -> 28B       -0.10155
     17B -> 18B       -0.11470
 
 Excited state symmetry could not be determined.
 Eigenvector   2:  2.012-?Sym  Eigenvalue=-0.0000000  <S**2>=0.762
     16B -> 18B        0.11470
     17B -> 18B        0.97927
     17B -> 28B       -0.10155
 
 Excited state symmetry could not be determined.
 Eigenvector   3:  3.030-?Sym  Eigenvalue= 0.2992383  <S**2>=2.044
     17A -> 22A       -0.13673
     16B -> 19B        0.51666
     17B -> 19B        0.82514
 The wavefunction is stable under the perturbations considered.
 Leave Link  914 at Sun Apr 18 13:08:17 2021, MaxMem=   104857600 cpu:            3551.4 elap:             108.6
 (Enter /s/ls4/users/knvvv/bin/g16sse/l508.exe)
 The wavefunction is already stable.
 Leave Link  508 at Sun Apr 18 13:08:18 2021, MaxMem=   104857600 cpu:               2.2 elap:               0.1
 (Enter /s/ls4/users/knvvv/bin/g16sse/l601.exe)
 Copying SCF densities to generalized density rwf, IOpCl= 1 IROHF=0.
 SCF density gives NOpUse=  8 NOpAll= 48.
 Marking SCF density as not fully symmetric.

 **********************************************************************

            Population analysis using the SCF density.

 **********************************************************************

 Orbital symmetries:
 Alpha Orbitals:
       Occupied  (A1G) (A1G) (T1U) (T1U) (T1U) (A1G) (T1U) (T1U)
                 (T1U) (EG) (T2G) (T2G) (T2G) (EG) (?A) (?B) (?B)
                 (?B)
       Virtual   (?B) (?B) (?B) (A1G) (?A) (?C) (?C) (?C) (?A)
                 (?B) (?B) (?B) (?A) (?A) (?C) (?C) (?C) (?A) (?B)
                 (?B) (?B) (?B) (?B) (?B) (?B) (?B) (?B) (?B) (?A)
                 (?C) (?C) (?C) (?A) (?A) (?B) (?B) (?B) (?A) (?C)
                 (?C) (?C) (?A) (?B) (A2U) (?C) (?C) (?B) (?B)
                 (?C) (?A) (T1U) (T1U) (T1U) (?A) (T2G) (T2G) (T2G)
                 (?A) (A1G) (?D) (?D) (?D) (?D) (?D) (?D) (?D)
                 (T1U) (T1U) (T1U) (A1G) (?E) (?E) (?E) (?E) (A2U)
                 (?E) (?E) (A1G) (A1G) (A1G)
 Beta  Orbitals:
       Occupied  (A1G) (A1G) (T1U) (T1U) (T1U) (A1G) (T1U) (T1U)
                 (T1U) (EG) (T2G) (T2G) (T2G) (EG) (?A) (?B) (?B)
       Virtual   (?B) (?A) (?B) (?B) (?B) (?A) (?C) (?C) (?A) (?C)
                 (?B) (?B) (?B) (?A) (?C) (?C) (?A) (?C) (?A) (?B)
                 (?B) (?B) (A2U) (?B) (?B) (?B) (?B) (?B) (?B)
                 (?A) (T2G) (T2G) (?A) (T2G) (?A) (?A) (?A) (?A)
                 (?B) (?A) (?A) (?A) (?A) (?B) (?B) (?B) (?B) (?A)
                 (?A) (A2U) (?B) (?B) (?B) (?B) (T2G) (T2G) (T2G)
                 (T2G) (T2G) (T2G) (?D) (?D) (?D) (A2U) (?D) (?D)
                 (?D) (T1U) (T1U) (T1U) (A1G) (?D) (?D) (?D) (?D)
                 (A2U) (?D) (?D) (A1G) (A1G) (A1G)
 Unable to determine electronic state:  an orbital has unidentified symmetry.
 Alpha  occ. eigenvalues -- -485.43204 -63.38231 -57.21108 -57.20382 -57.20382
 Alpha  occ. eigenvalues --   -9.05402  -6.88699  -6.86643  -6.86643  -2.91579
 Alpha  occ. eigenvalues --   -2.91068  -2.91068  -2.89551  -2.89551  -0.88307
 Alpha  occ. eigenvalues --   -0.42846  -0.38448  -0.38448
 Alpha virt. eigenvalues --    0.02573   0.03097   0.03097   0.04293   0.15018
 Alpha virt. eigenvalues --    0.15195   0.15195   0.15616   0.15616   0.28257
 Alpha virt. eigenvalues --    0.28394   0.28394   0.42249   0.46702   0.47467
 Alpha virt. eigenvalues --    0.47467   0.49237   0.49237   0.97866   0.98382
 Alpha virt. eigenvalues --    0.98382   0.99485   0.99485   1.01170   1.01170
 Alpha virt. eigenvalues --    1.09745   1.13066   1.13066   1.56669   1.57716
 Alpha virt. eigenvalues --    1.57716   1.60728   1.60728   1.81731   2.62087
 Alpha virt. eigenvalues --    2.62735   2.62735   2.62839   2.63277   2.63277
 Alpha virt. eigenvalues --    2.64317   2.64317   2.64703   2.64703   2.65943
 Alpha virt. eigenvalues --    2.65943   2.68026   2.68026   2.68262   2.68262
 Alpha virt. eigenvalues --    3.95376   4.00919   4.00919   5.08510   5.09657
 Alpha virt. eigenvalues --    5.09657   5.13335   5.13335   7.68642   9.45305
 Alpha virt. eigenvalues --    9.45621   9.45621   9.46567   9.46567   9.48139
 Alpha virt. eigenvalues --    9.48139  13.52372  13.56621  13.56621  28.92372
 Alpha virt. eigenvalues --   34.34938  34.35139  34.35139  34.35744  34.35744
 Alpha virt. eigenvalues --   34.36744  34.36744  94.71426 321.818161816.98750
  Beta  occ. eigenvalues -- -485.42814 -63.38023 -57.20293 -57.20271 -57.20271
  Beta  occ. eigenvalues --   -9.04952  -6.87145  -6.86511  -6.86511  -2.90929
  Beta  occ. eigenvalues --   -2.90487  -2.90487  -2.89509  -2.89509  -0.81599
  Beta  occ. eigenvalues --   -0.36696  -0.36696
  Beta virt. eigenvalues --   -0.17211   0.02883   0.03163   0.03163   0.03726
  Beta virt. eigenvalues --    0.12447   0.14221   0.14221   0.15592   0.15592
  Beta virt. eigenvalues --    0.25180   0.27894   0.27894   0.42234   0.49240
  Beta virt. eigenvalues --    0.49240   0.49977   0.49977   0.50118   0.96509
  Beta virt. eigenvalues --    0.99653   0.99653   1.00133   1.00133   1.01324
  Beta virt. eigenvalues --    1.01324   1.12603   1.13799   1.13799   1.59057
  Beta virt. eigenvalues --    1.60577   1.60577   1.61440   1.61440   1.84927
  Beta virt. eigenvalues --    2.65242   2.67076   2.67076   2.67117   2.68267
  Beta virt. eigenvalues --    2.68267   2.68614   2.68614   2.68669   2.68669
  Beta virt. eigenvalues --    2.68705   2.68705   2.69142   2.69142   2.69643
  Beta virt. eigenvalues --    2.69643   3.97346   4.01582   4.01582   5.09624
  Beta virt. eigenvalues --    5.12234   5.12234   5.13790   5.13790   7.70918
  Beta virt. eigenvalues --    9.46422   9.46483   9.46483   9.46999   9.46999
  Beta virt. eigenvalues --    9.48187   9.48187  13.59358  13.59358  13.60694
  Beta virt. eigenvalues --   28.92433  34.35267  34.35358  34.35358  34.35824
  Beta virt. eigenvalues --   34.35824  34.36754  34.36754  94.72006 321.82289
  Beta virt. eigenvalues -- 1816.99070
          Condensed to atoms (all electrons):
               1
     1  Br  35.000000
          Atomic-Atomic Spin Densities.
               1
     1  Br   1.000000
 Mulliken charges and spin densities:
               1          2
     1  Br  -0.000000   1.000000
 Sum of Mulliken charges =  -0.00000   1.00000
 Mulliken charges and spin densities with hydrogens summed into heavy atoms:
               1          2
     1  Br  -0.000000   1.000000
 Electronic spatial extent (au):  <R**2>=             40.5413
 Charge=             -0.0000 electrons
 Dipole moment (field-independent basis, Debye):
    X=              0.0000    Y=              0.0000    Z=             -0.0000  Tot=              0.0000
 Quadrupole moment (field-independent basis, Debye-Ang):
   XX=            -16.3920   YY=            -19.0687   ZZ=            -19.0687
   XY=              0.0000   XZ=             -0.0000   YZ=             -0.0000
 Traceless Quadrupole moment (field-independent basis, Debye-Ang):
   XX=              1.7845   YY=             -0.8923   ZZ=             -0.8923
   XY=              0.0000   XZ=             -0.0000   YZ=             -0.0000
 Octapole moment (field-independent basis, Debye-Ang**2):
  XXX=              0.0000  YYY=              0.0000  ZZZ=             -0.0000  XYY=             -0.0000
  XXY=              0.0000  XXZ=             -0.0000  XZZ=              0.0000  YZZ=             -0.0000
  YYZ=              0.0000  XYZ=              0.0000
 Hexadecapole moment (field-independent basis, Debye-Ang**3):
 XXXX=            -17.3696 YYYY=            -24.2758 ZZZZ=            -24.2758 XXXY=              0.0000
 XXXZ=             -0.0000 YYYX=              0.0000 YYYZ=              0.0000 ZZZX=             -0.0000
 ZZZY=             -0.0000 XXYY=             -6.9549 XXZZ=             -6.9549 YYZZ=             -8.0919
 XXYZ=             -0.0000 YYXZ=             -0.0000 ZZXY=              0.0000
 N-N= 0.000000000000D+00 E-N=-6.150827561739D+03  KE= 2.568955453226D+03
                          Isotropic Fermi Contact Couplings
        Atom                 a.u.       MegaHertz       Gauss      10(-4) cm-1
     1  Br(79)             0.08042      90.36796      32.24554      30.14351
 PrsmSu:  requested number of processors reduced to:  21 ShMem   1 Linda.
 --------------------------------------------------------
       Center         ----  Spin Dipole Couplings  ----
                      3XX-RR        3YY-RR        3ZZ-RR
 --------------------------------------------------------
     1   Atom       10.266042     -5.133021     -5.133021
 --------------------------------------------------------
                        XY            XZ            YZ
 --------------------------------------------------------
     1   Atom        0.000000      0.000000      0.000000
 --------------------------------------------------------


 ---------------------------------------------------------------------------------
              Anisotropic Spin Dipole Couplings in Principal Axis System
 ---------------------------------------------------------------------------------

       Atom             a.u.   MegaHertz   Gauss  10(-4) cm-1        Axes

              Baa    -5.1330  -688.530  -245.685  -229.669  0.0000  0.0000  1.0000
     1 Br(79) Bbb    -5.1330  -688.530  -245.685  -229.669 -0.0000  1.0000  0.0000
              Bcc    10.2660  1377.059   491.369   459.338  1.0000  0.0000  0.0000
 

 ---------------------------------------------------------------------------------

 PrsmSu:  requested number of processors reduced to:  21 ShMem   1 Linda.
 No NMR shielding tensors so no spin-rotation constants.
 Leave Link  601 at Sun Apr 18 13:08:29 2021, MaxMem=   104857600 cpu:             508.8 elap:              11.0
 (Enter /s/ls4/users/knvvv/bin/g16sse/l9999.exe)

 Test job not archived.
 1\1\GINC-N151\Stability\UM062X\Gen\Br1(2)\KNVVV\18-Apr-2021\0\\#P M062
 X/GEN Integral=UltraFineGrid SCF=NoSymm Stable=(RExt, Opt) IOp(1/33=1)
 \\Database calculations.\\0,2\Br,0,0.,0.,0.\\Version=ES64L-G16RevA.03\
 HF=-2574.2107419\S2=0.753589\S2-1=0.\S2A=0.750006\RMSD=1.468e-09\Dipol
 e=0.,0.,0.\Quadrupole=-0.663368,-0.663368,1.326736,0.,0.,0.\PG=OH [O(B
 r1)]\\@


 IF YOU GIVE A BOY AND A PIG EVERYTHING THEY WANT,
 YOU'LL GET A BAD BOY AND A GOOD PIG.
 Job cpu time:       0 days  1 hours 36 minutes 25.8 seconds.
 Elapsed time:       0 days  0 hours  2 minutes 40.3 seconds.
 File lengths (MBytes):  RWF=     97 Int=      0 D2E=      0 Chk=      4 Scr=      1
 Normal termination of Gaussian 16 at Sun Apr 18 13:08:29 2021.
