 Entering Gaussian System, Link 0=/opt/g16avx/g16
 Input=M062X--MG3S--060_CH_2pi_SR-MGN-BE107.gjf
 Output=M062X--MG3S--060_CH_2pi_SR-MGN-BE107.log
 Initial command:
 /opt/g16avx/l1.exe "/scratch/gaussian/Gau-14471.inp" -scrdir="/scratch/gaussian/"
 Entering Link 1 = /opt/g16avx/l1.exe PID=     14473.
  
 Copyright (c) 1988,1990,1992,1993,1995,1998,2003,2009,2016,
            Gaussian, Inc.  All Rights Reserved.
  
 This is part of the Gaussian(R) 16 program.  It is based on
 the Gaussian(R) 09 system (copyright 2009, Gaussian, Inc.),
 the Gaussian(R) 03 system (copyright 2003, Gaussian, Inc.),
 the Gaussian(R) 98 system (copyright 1998, Gaussian, Inc.),
 the Gaussian(R) 94 system (copyright 1995, Gaussian, Inc.),
 the Gaussian 92(TM) system (copyright 1992, Gaussian, Inc.),
 the Gaussian 90(TM) system (copyright 1990, Gaussian, Inc.),
 the Gaussian 88(TM) system (copyright 1988, Gaussian, Inc.),
 the Gaussian 86(TM) system (copyright 1986, Carnegie Mellon
 University), and the Gaussian 82(TM) system (copyright 1983,
 Carnegie Mellon University). Gaussian is a federally registered
 trademark of Gaussian, Inc.
  
 This software contains proprietary and confidential information,
 including trade secrets, belonging to Gaussian, Inc.
  
 This software is provided under written license and may be
 used, copied, transmitted, or stored only in accord with that
 written license.
  
 The following legend is applicable only to US Government
 contracts under FAR:
  
                    RESTRICTED RIGHTS LEGEND
  
 Use, reproduction and disclosure by the US Government is
 subject to restrictions as set forth in subparagraphs (a)
 and (c) of the Commercial Computer Software - Restricted
 Rights clause in FAR 52.227-19.
  
 Gaussian, Inc.
 340 Quinnipiac St., Bldg. 40, Wallingford CT 06492
  
  
 ---------------------------------------------------------------
 Warning -- This program may not be used in any manner that
 competes with the business of Gaussian, Inc. or will provide
 assistance to any competitor of Gaussian, Inc.  The licensee
 of this program is prohibited from giving any competitor of
 Gaussian, Inc. access to this program.  By using this program,
 the user acknowledges that Gaussian, Inc. is engaged in the
 business of creating and licensing software in the field of
 computational chemistry and represents and warrants to the
 licensee that it is not a competitor of Gaussian, Inc. and that
 it will not use this program in any manner prohibited above.
 ---------------------------------------------------------------
  

 Cite this work as:
 Gaussian 16, Revision A.03,
 M. J. Frisch, G. W. Trucks, H. B. Schlegel, G. E. Scuseria, 
 M. A. Robb, J. R. Cheeseman, G. Scalmani, V. Barone, 
 G. A. Petersson, H. Nakatsuji, X. Li, M. Caricato, A. V. Marenich, 
 J. Bloino, B. G. Janesko, R. Gomperts, B. Mennucci, H. P. Hratchian, 
 J. V. Ortiz, A. F. Izmaylov, J. L. Sonnenberg, D. Williams-Young, 
 F. Ding, F. Lipparini, F. Egidi, J. Goings, B. Peng, A. Petrone, 
 T. Henderson, D. Ranasinghe, V. G. Zakrzewski, J. Gao, N. Rega, 
 G. Zheng, W. Liang, M. Hada, M. Ehara, K. Toyota, R. Fukuda, 
 J. Hasegawa, M. Ishida, T. Nakajima, Y. Honda, O. Kitao, H. Nakai, 
 T. Vreven, K. Throssell, J. A. Montgomery, Jr., J. E. Peralta, 
 F. Ogliaro, M. J. Bearpark, J. J. Heyd, E. N. Brothers, K. N. Kudin, 
 V. N. Staroverov, T. A. Keith, R. Kobayashi, J. Normand, 
 K. Raghavachari, A. P. Rendell, J. C. Burant, S. S. Iyengar, 
 J. Tomasi, M. Cossi, J. M. Millam, M. Klene, C. Adamo, R. Cammi, 
 J. W. Ochterski, R. L. Martin, K. Morokuma, O. Farkas, 
 J. B. Foresman, and D. J. Fox, Gaussian, Inc., Wallingford CT, 2016.
 
 ******************************************
 Gaussian 16:  ES64L-G16RevA.03 25-Dec-2016
                19-Apr-2021 
 ******************************************
 %nprocshared=7
 Will use up to    7 processors via shared memory.
 ----------------------------------------------------------------------
 #P M062X/GEN Integral=UltraFineGrid SCF=NoSymm Stable=(RExt, Opt) IOp(
 1/33=1)
 ----------------------------------------------------------------------
 1/33=1,38=1,172=1/1;
 2/12=2,17=6,18=5,40=1/2;
 3/5=7,11=2,25=1,30=1,74=-55,75=-5/1,2,3;
 4/9=2/1;
 5/5=2,38=5/2;
 6/7=2,8=2,9=2,10=2,28=1/1;
 8/6=1,10=90,11=11/1;
 9/8=-3,42=1,46=1/14;
 5/5=2,8=3,17=40,38=5/8(-2);
 6/7=2,8=2,9=2,10=2,28=1/1;
 99/5=1,9=1/99;
 Leave Link    1 at Mon Apr 19 21:00:02 2021, MaxMem=           0 cpu:               0.3 elap:               0.0
 (Enter /opt/g16avx/l101.exe)
 ONIOM data not found on unit 2.
 ----------------------
 Database calculations.
 ----------------------
 TstMul:  ICh=     0
 TstMul:  Mul=     2
 TstMul:  ICh=     0
 TstMul:  Mul=     2
 Symbolic Z-matrix:
 Charge =  0 Multiplicity = 2
 C                     0.        0.        0. 
 H                     0.        0.        1.11913 
 
 RdStrC is calling ZToCFu for IStruc=1 NZ=     2.
 PrtBox:  NBox=     1 Levels=  1 BoxLen=    8.00 SMaxX=        2.11
          Shift=            0.000000            0.000000            0.000000
 Box      1 Number                   0 centers from      1 to      2:
 After GenITR:
 ITRead=  0  0
 MicOpt= -1 -1
 ITRead=  0  0
 MicOpt= -1 -1
 NAtoms=      2 NQM=        2 NQMF=       0 NMMI=      0 NMMIF=      0
                NMic=       0 NMicF=      0.
                    Isotopes and Nuclear Properties:
 (Nuclear quadrupole moments (NQMom) in fm**2, nuclear magnetic moments (NMagM)
  in nuclear magnetons)

  Atom         1           2
 IAtWgt=          12           1
 AtmWgt=  12.0000000   1.0078250
 NucSpn=           0           1
 AtZEff=  -0.0000000  -0.0000000
 NQMom=    0.0000000   0.0000000
 NMagM=    0.0000000   2.7928460
 AtZNuc=   6.0000000   1.0000000
 No MM parameters found.
 Leave Link  101 at Mon Apr 19 21:00:02 2021, MaxMem=   104857600 cpu:               1.2 elap:               0.2
 (Enter /opt/g16avx/l202.exe)
                          Input orientation:                          
 ---------------------------------------------------------------------
 Center     Atomic      Atomic             Coordinates (Angstroms)
 Number     Number       Type             X           Y           Z
 ---------------------------------------------------------------------
      1          6           0        0.000000    0.000000    0.000000
      2          1           0        0.000000    0.000000    1.119130
 ---------------------------------------------------------------------
 Stoichiometry    CH(2)
 Framework group  C*V[C*(HC)]
 Deg. of freedom     1
 Full point group                 C*V     NOp   4
 Largest Abelian subgroup         C2V     NOp   4
 Largest concise Abelian subgroup C1      NOp   1
                         Standard orientation:                         
 ---------------------------------------------------------------------
 Center     Atomic      Atomic             Coordinates (Angstroms)
 Number     Number       Type             X           Y           Z
 ---------------------------------------------------------------------
      1          6           0        0.000000    0.000000    0.159876
      2          1           0        0.000000    0.000000   -0.959254
 ---------------------------------------------------------------------
 Rotational constants (GHZ):           0.0000000         434.0046889         434.0046889
 Leave Link  202 at Mon Apr 19 21:00:03 2021, MaxMem=   104857600 cpu:               0.0 elap:               0.0
 (Enter /opt/g16avx/l301.exe)
 General basis read from cards:  (5D, 7F)
 Centers:       2
 S 3 1.00
     Exponent=  3.3865000000D+01 Coefficients=  2.5493800000D-02
     Exponent=  5.0947900000D+00 Coefficients=  1.9037300000D-01
     Exponent=  1.1587900000D+00 Coefficients=  8.5216100000D-01
 S 1 1.00
     Exponent=  3.2584000000D-01 Coefficients=  1.0000000000D+00
 S 1 1.00
     Exponent=  1.0274100000D-01 Coefficients=  1.0000000000D+00
 P 1 1.00
     Exponent=  1.5000000000D+00 Coefficients=  1.0000000000D+00
 P 1 1.00
     Exponent=  3.7500000000D-01 Coefficients=  1.0000000000D+00
 ****
 Centers:       1
 S 6 1.00
     Exponent=  4.5632400000D+03 Coefficients=  1.9666500000D-03
     Exponent=  6.8202400000D+02 Coefficients=  1.5230600000D-02
     Exponent=  1.5497300000D+02 Coefficients=  7.6126900000D-02
     Exponent=  4.4455300000D+01 Coefficients=  2.6080100000D-01
     Exponent=  1.3029000000D+01 Coefficients=  6.1646200000D-01
     Exponent=  1.8277300000D+00 Coefficients=  2.2100600000D-01
 S 3 1.00
     Exponent=  2.0964200000D+01 Coefficients=  1.1466000000D-01
     Exponent=  4.8033100000D+00 Coefficients=  9.1999900000D-01
     Exponent=  1.4593300000D+00 Coefficients= -3.0306800000D-03
 S 1 1.00
     Exponent=  4.8345600000D-01 Coefficients=  1.0000000000D+00
 S 1 1.00
     Exponent=  1.4558500000D-01 Coefficients=  1.0000000000D+00
 S 1 1.00
     Exponent=  4.3800000000D-02 Coefficients=  1.0000000000D+00
 P 3 1.00
     Exponent=  2.0964200000D+01 Coefficients=  4.0248700000D-02
     Exponent=  4.8033100000D+00 Coefficients=  2.3759400000D-01
     Exponent=  1.4593300000D+00 Coefficients=  8.1585400000D-01
 P 1 1.00
     Exponent=  4.8345600000D-01 Coefficients=  1.0000000000D+00
 P 1 1.00
     Exponent=  1.4558500000D-01 Coefficients=  1.0000000000D+00
 P 1 1.00
     Exponent=  4.3800000000D-02 Coefficients=  1.0000000000D+00
 D 1 1.00
     Exponent=  1.2520000000D+00 Coefficients=  1.0000000000D+00
 D 1 1.00
     Exponent=  3.1300000000D-01 Coefficients=  1.0000000000D+00
 F 1 1.00
     Exponent=  8.0000000000D-01 Coefficients=  1.0000000000D+00
 ****
 Ernie: Thresh=  0.10000D-02 Tol=  0.10000D-05 Strict=F.
 There are    23 symmetry adapted cartesian basis functions of A1  symmetry.
 There are     3 symmetry adapted cartesian basis functions of A2  symmetry.
 There are    11 symmetry adapted cartesian basis functions of B1  symmetry.
 There are    11 symmetry adapted cartesian basis functions of B2  symmetry.
 There are    20 symmetry adapted basis functions of A1  symmetry.
 There are     3 symmetry adapted basis functions of A2  symmetry.
 There are    10 symmetry adapted basis functions of B1  symmetry.
 There are    10 symmetry adapted basis functions of B2  symmetry.
    43 basis functions,    63 primitive gaussians,    48 cartesian basis functions
     4 alpha electrons        3 beta electrons
       nuclear repulsion energy         2.8370817202 Hartrees.
 IExCor= 4336 DFT=T Ex+Corr=M062X ExCW=0 ScaHFX=  0.540000
 ScaDFX=  1.000000  1.000000  1.000000  1.000000 ScalE2=  1.000000  1.000000
 IRadAn=      5 IRanWt=     -1 IRanGd=            0 ICorTp=0 IEmpDi=  4
 NAtoms=    2 NActive=    2 NUniq=    2 SFac= 1.00D+00 NAtFMM=   60 NAOKFM=F Big=F
 Integral buffers will be    131072 words long.
 Raffenetti 2 integral format.
 Two-electron integral symmetry is turned on.
 Leave Link  301 at Mon Apr 19 21:00:03 2021, MaxMem=   104857600 cpu:               0.4 elap:               0.1
 (Enter /opt/g16avx/l302.exe)
 NPDir=0 NMtPBC=     1 NCelOv=     1 NCel=       1 NClECP=     1 NCelD=      1
         NCelK=      1 NCelE2=     1 NClLst=     1 CellRange=     0.0.
 One-electron integrals computed using PRISM.
 One-electron integral symmetry used in STVInt
 NBasis=    43 RedAO= T EigKep=  6.56D-03  NBF=    20     3    10    10
 NBsUse=    43 1.00D-06 EigRej= -1.00D+00 NBFU=    20     3    10    10
 Precomputing XC quadrature grid using
 IXCGrd= 4 IRadAn=           5 IRanWt=          -1 IRanGd=           0 AccXCQ= 0.00D+00.
 Generated NRdTot=       0 NPtTot=           0 NUsed=           0 NTot=          32
 NSgBfM=    48    48    48    48    48 MxSgAt=     2 MxSgA2=     2.
 Leave Link  302 at Mon Apr 19 21:00:03 2021, MaxMem=   104857600 cpu:               1.0 elap:               0.1
 (Enter /opt/g16avx/l303.exe)
 DipDrv:  MaxL=1.
 Leave Link  303 at Mon Apr 19 21:00:03 2021, MaxMem=   104857600 cpu:               0.2 elap:               0.0
 (Enter /opt/g16avx/l401.exe)
 SCF N**3 symmetry information disabled.
 ExpMin= 4.38D-02 ExpMax= 4.56D+03 ExpMxC= 6.82D+02 IAcc=3 IRadAn=         5 AccDes= 0.00D+00
 Harris functional with IExCor= 1009 and IRadAn=       5 diagonalized for initial guess.
 HarFok:  IExCor= 1009 AccDes= 0.00D+00 IRadAn=         5 IDoV= 1 UseB2=F ITyADJ=14
 ICtDFT=  3500011 ScaDFX=  1.000000  1.000000  1.000000  1.000000
 FoFCou: FMM=F IPFlag=           0 FMFlag=      100000 FMFlg1=           0
         NFxFlg=           0 DoJE=T BraDBF=F KetDBF=T FulRan=T
         wScrn=  0.000000 ICntrl=       500 IOpCl=  0 I1Cent=   200000004 NGrid=           0
         NMat0=    1 NMatS0=      1 NMatT0=    0 NMatD0=    1 NMtDS0=    0 NMtDT0=    0
 Petite list used in FoFCou.
 Harris En= -38.4122643999640    
 JPrj=0 DoOrth=F DoCkMO=F.
 Initial guess orbital symmetries:
 Alpha Orbitals:
       Occupied  (SG) (SG) (SG) (PI)
       Virtual   (PI) (SG) (SG) (PI) (PI) (SG) (SG) (SG) (PI) (PI)
                 (PI) (PI) (SG) (DLTA) (DLTA) (SG) (PI) (PI) (SG)
                 (SG) (PI) (PI) (DLTA) (DLTA) (PHI) (PHI) (PI)
                 (PI) (SG) (SG) (DLTA) (DLTA) (PI) (PI) (SG) (PI)
                 (PI) (SG) (SG)
 Beta  Orbitals:
       Occupied  (SG) (SG) (SG)
       Virtual   (PI) (PI) (SG) (SG) (PI) (PI) (SG) (SG) (SG) (PI)
                 (PI) (PI) (PI) (SG) (DLTA) (DLTA) (SG) (PI) (PI)
                 (SG) (SG) (PI) (PI) (DLTA) (DLTA) (PHI) (PHI)
                 (PI) (PI) (SG) (SG) (DLTA) (DLTA) (PI) (PI) (SG)
                 (PI) (PI) (SG) (SG)
 Initial guess <Sx>= 0.0000 <Sy>= 0.0000 <Sz>= 0.5000 <S**2>= 0.7500 S= 0.5000
 Leave Link  401 at Mon Apr 19 21:00:03 2021, MaxMem=   104857600 cpu:               1.2 elap:               0.2
 (Enter /opt/g16avx/l502.exe)
 Keep R1 and R2 ints in memory in symmetry-blocked form, NReq=6555993.
 FoFCou: FMM=F IPFlag=           0 FMFlag=           0 FMFlg1=           0
         NFxFlg=           0 DoJE=F BraDBF=F KetDBF=F FulRan=T
         wScrn=  0.000000 ICntrl=       600 IOpCl=  0 I1Cent=           0 NGrid=           0
         NMat0=    1 NMatS0=    946 NMatT0=    0 NMatD0=    1 NMtDS0=    0 NMtDT0=    0
 Petite list used in FoFCou.
 UHF open shell SCF:
 Using DIIS extrapolation, IDIIS=  1040.
 NGot=   104857600 LenX=   104609743 LenY=   104606998
 Requested convergence on RMS density matrix=1.00D-08 within 128 cycles.
 Requested convergence on MAX density matrix=1.00D-06.
 Requested convergence on             energy=1.00D-06.
 No special actions if energy rises.

 Cycle   1  Pass 1  IDiag  1:
 E= -38.4668300862347    
 DIIS: error= 1.47D-02 at cycle   1 NSaved=   1.
 NSaved= 1 IEnMin= 1 EnMin= -38.4668300862347     IErMin= 1 ErrMin= 1.47D-02
 ErrMax= 1.47D-02  0.00D+00 EMaxC= 1.00D-01 BMatC= 2.69D-02 BMatP= 2.69D-02
 IDIUse=3 WtCom= 8.53D-01 WtEn= 1.47D-01
 Coeff-Com:  0.100D+01
 Coeff-En:   0.100D+01
 Coeff:      0.100D+01
 Gap=     0.219 Goal=   None    Shift=    0.000
 Gap=     0.331 Goal=   None    Shift=    0.000
 GapD=    0.219 DampG=1.000 DampE=0.500 DampFc=0.5000 IDamp=-1.
 Damping current iteration by 5.00D-01
 RMSDP=1.65D-03 MaxDP=2.10D-02              OVMax= 3.72D-02

 Cycle   2  Pass 1  IDiag  1:
 E= -38.4689187403553     Delta-E=       -0.002088654121 Rises=F Damp=T
 DIIS: error= 7.12D-03 at cycle   2 NSaved=   2.
 NSaved= 2 IEnMin= 2 EnMin= -38.4689187403553     IErMin= 2 ErrMin= 7.12D-03
 ErrMax= 7.12D-03  0.00D+00 EMaxC= 1.00D-01 BMatC= 7.00D-03 BMatP= 2.69D-02
 IDIUse=3 WtCom= 9.29D-01 WtEn= 7.12D-02
 Coeff-Com: -0.988D+00 0.199D+01
 Coeff-En:   0.000D+00 0.100D+01
 Coeff:     -0.918D+00 0.192D+01
 Gap=     0.217 Goal=   None    Shift=    0.000
 Gap=     0.287 Goal=   None    Shift=    0.000
 RMSDP=9.44D-04 MaxDP=1.47D-02 DE=-2.09D-03 OVMax= 1.23D-02

 Cycle   3  Pass 1  IDiag  1:
 E= -38.4712747949805     Delta-E=       -0.002356054625 Rises=F Damp=F
 DIIS: error= 1.21D-03 at cycle   3 NSaved=   3.
 NSaved= 3 IEnMin= 3 EnMin= -38.4712747949805     IErMin= 3 ErrMin= 1.21D-03
 ErrMax= 1.21D-03  0.00D+00 EMaxC= 1.00D-01 BMatC= 9.20D-05 BMatP= 7.00D-03
 IDIUse=3 WtCom= 9.88D-01 WtEn= 1.21D-02
 Coeff-Com: -0.178D+00 0.327D+00 0.851D+00
 Coeff-En:   0.000D+00 0.000D+00 0.100D+01
 Coeff:     -0.175D+00 0.323D+00 0.853D+00
 Gap=     0.218 Goal=   None    Shift=    0.000
 Gap=     0.287 Goal=   None    Shift=    0.000
 RMSDP=1.53D-04 MaxDP=4.74D-03 DE=-2.36D-03 OVMax= 3.69D-03

 Cycle   4  Pass 1  IDiag  1:
 E= -38.4713075199157     Delta-E=       -0.000032724935 Rises=F Damp=F
 DIIS: error= 4.89D-04 at cycle   4 NSaved=   4.
 NSaved= 4 IEnMin= 4 EnMin= -38.4713075199157     IErMin= 4 ErrMin= 4.89D-04
 ErrMax= 4.89D-04  0.00D+00 EMaxC= 1.00D-01 BMatC= 9.45D-06 BMatP= 9.20D-05
 IDIUse=3 WtCom= 9.95D-01 WtEn= 4.89D-03
 Coeff-Com:  0.118D+00-0.239D+00 0.119D-01 0.111D+01
 Coeff-En:   0.000D+00 0.000D+00 0.000D+00 0.100D+01
 Coeff:      0.118D+00-0.238D+00 0.119D-01 0.111D+01
 Gap=     0.219 Goal=   None    Shift=    0.000
 Gap=     0.287 Goal=   None    Shift=    0.000
 RMSDP=5.98D-05 MaxDP=1.24D-03 DE=-3.27D-05 OVMax= 2.17D-03

 Cycle   5  Pass 1  IDiag  1:
 E= -38.4713129723670     Delta-E=       -0.000005452451 Rises=F Damp=F
 DIIS: error= 8.82D-05 at cycle   5 NSaved=   5.
 NSaved= 5 IEnMin= 5 EnMin= -38.4713129723670     IErMin= 5 ErrMin= 8.82D-05
 ErrMax= 8.82D-05  0.00D+00 EMaxC= 1.00D-01 BMatC= 3.35D-07 BMatP= 9.45D-06
 IDIUse=1 WtCom= 1.00D+00 WtEn= 0.00D+00
 Coeff-Com: -0.230D-02 0.611D-02-0.415D-01-0.922D-01 0.113D+01
 Coeff:     -0.230D-02 0.611D-02-0.415D-01-0.922D-01 0.113D+01
 Gap=     0.219 Goal=   None    Shift=    0.000
 Gap=     0.287 Goal=   None    Shift=    0.000
 RMSDP=1.30D-05 MaxDP=3.82D-04 DE=-5.45D-06 OVMax= 3.13D-04

 Cycle   6  Pass 1  IDiag  1:
 E= -38.4713131780188     Delta-E=       -0.000000205652 Rises=F Damp=F
 DIIS: error= 1.72D-05 at cycle   6 NSaved=   6.
 NSaved= 6 IEnMin= 6 EnMin= -38.4713131780188     IErMin= 6 ErrMin= 1.72D-05
 ErrMax= 1.72D-05  0.00D+00 EMaxC= 1.00D-01 BMatC= 2.28D-08 BMatP= 3.35D-07
 IDIUse=1 WtCom= 1.00D+00 WtEn= 0.00D+00
 Coeff-Com: -0.486D-02 0.962D-02 0.110D-01-0.284D-01-0.300D+00 0.131D+01
 Coeff:     -0.486D-02 0.962D-02 0.110D-01-0.284D-01-0.300D+00 0.131D+01
 Gap=     0.219 Goal=   None    Shift=    0.000
 Gap=     0.287 Goal=   None    Shift=    0.000
 RMSDP=3.52D-06 MaxDP=5.48D-05 DE=-2.06D-07 OVMax= 9.44D-05

 Cycle   7  Pass 1  IDiag  1:
 E= -38.4713131932979     Delta-E=       -0.000000015279 Rises=F Damp=F
 DIIS: error= 4.49D-06 at cycle   7 NSaved=   7.
 NSaved= 7 IEnMin= 7 EnMin= -38.4713131932979     IErMin= 7 ErrMin= 4.49D-06
 ErrMax= 4.49D-06  0.00D+00 EMaxC= 1.00D-01 BMatC= 1.51D-09 BMatP= 2.28D-08
 IDIUse=1 WtCom= 1.00D+00 WtEn= 0.00D+00
 Coeff-Com:  0.167D-02-0.334D-02 0.394D-03 0.148D-01-0.849D-02-0.317D+00
 Coeff-Com:  0.131D+01
 Coeff:      0.167D-02-0.334D-02 0.394D-03 0.148D-01-0.849D-02-0.317D+00
 Coeff:      0.131D+01
 Gap=     0.219 Goal=   None    Shift=    0.000
 Gap=     0.287 Goal=   None    Shift=    0.000
 RMSDP=1.13D-06 MaxDP=1.43D-05 DE=-1.53D-08 OVMax= 3.50D-05

 Cycle   8  Pass 1  IDiag  1:
 E= -38.4713131945343     Delta-E=       -0.000000001236 Rises=F Damp=F
 DIIS: error= 1.09D-06 at cycle   8 NSaved=   8.
 NSaved= 8 IEnMin= 8 EnMin= -38.4713131945343     IErMin= 8 ErrMin= 1.09D-06
 ErrMax= 1.09D-06  0.00D+00 EMaxC= 1.00D-01 BMatC= 6.14D-11 BMatP= 1.51D-09
 IDIUse=1 WtCom= 1.00D+00 WtEn= 0.00D+00
 Coeff-Com: -0.713D-05 0.253D-04-0.570D-03-0.823D-03 0.219D-01-0.530D-01
 Coeff-Com: -0.174D+00 0.121D+01
 Coeff:     -0.713D-05 0.253D-04-0.570D-03-0.823D-03 0.219D-01-0.530D-01
 Coeff:     -0.174D+00 0.121D+01
 Gap=     0.219 Goal=   None    Shift=    0.000
 Gap=     0.287 Goal=   None    Shift=    0.000
 RMSDP=2.67D-07 MaxDP=5.47D-06 DE=-1.24D-09 OVMax= 9.05D-06

 Cycle   9  Pass 1  IDiag  1:
 E= -38.4713131945846     Delta-E=       -0.000000000050 Rises=F Damp=F
 DIIS: error= 8.92D-08 at cycle   9 NSaved=   9.
 NSaved= 9 IEnMin= 9 EnMin= -38.4713131945846     IErMin= 9 ErrMin= 8.92D-08
 ErrMax= 8.92D-08  0.00D+00 EMaxC= 1.00D-01 BMatC= 7.06D-13 BMatP= 6.14D-11
 IDIUse=1 WtCom= 1.00D+00 WtEn= 0.00D+00
 Coeff-Com: -0.785D-05 0.142D-04 0.123D-03 0.866D-04-0.472D-02 0.142D-01
 Coeff-Com:  0.228D-01-0.263D+00 0.123D+01
 Coeff:     -0.785D-05 0.142D-04 0.123D-03 0.866D-04-0.472D-02 0.142D-01
 Coeff:      0.228D-01-0.263D+00 0.123D+01
 Gap=     0.219 Goal=   None    Shift=    0.000
 Gap=     0.287 Goal=   None    Shift=    0.000
 RMSDP=2.18D-08 MaxDP=5.79D-07 DE=-5.03D-11 OVMax= 7.24D-07

 Cycle  10  Pass 1  IDiag  1:
 E= -38.4713131945851     Delta-E=       -0.000000000000 Rises=F Damp=F
 DIIS: error= 1.80D-08 at cycle  10 NSaved=  10.
 NSaved=10 IEnMin=10 EnMin= -38.4713131945851     IErMin=10 ErrMin= 1.80D-08
 ErrMax= 1.80D-08  0.00D+00 EMaxC= 1.00D-01 BMatC= 2.63D-14 BMatP= 7.06D-13
 IDIUse=1 WtCom= 1.00D+00 WtEn= 0.00D+00
 Coeff-Com:  0.468D-05-0.903D-05-0.145D-04 0.169D-04 0.629D-03-0.253D-02
 Coeff-Com: -0.347D-03 0.408D-01-0.347D+00 0.131D+01
 Coeff:      0.468D-05-0.903D-05-0.145D-04 0.169D-04 0.629D-03-0.253D-02
 Coeff:     -0.347D-03 0.408D-01-0.347D+00 0.131D+01
 Gap=     0.219 Goal=   None    Shift=    0.000
 Gap=     0.287 Goal=   None    Shift=    0.000
 RMSDP=4.04D-09 MaxDP=7.42D-08 DE=-4.69D-13 OVMax= 1.06D-07

 SCF Done:  E(UM062X) =  -38.4713131946     A.U. after   10 cycles
            NFock= 10  Conv=0.40D-08     -V/T= 2.0028
 <Sx>= 0.0000 <Sy>= 0.0000 <Sz>= 0.5000 <S**2>= 0.7527 S= 0.5014
 <L.S>=  0.00000000000    
 KE= 3.836356218409D+01 PE=-9.501928235707D+01 EE= 1.534732525821D+01
 Annihilation of the first spin contaminant:
 S**2 before annihilation     0.7527,   after     0.7500
 Leave Link  502 at Mon Apr 19 21:00:04 2021, MaxMem=   104857600 cpu:               3.8 elap:               0.5
 (Enter /opt/g16avx/l601.exe)
 Copying SCF densities to generalized density rwf, IOpCl= 1 IROHF=0.

 **********************************************************************

            Population analysis using the SCF density.

 **********************************************************************

 Orbital symmetries:
 Alpha Orbitals:
       Occupied  (SG) (SG) (SG) (?A)
       Virtual   (?A) (SG) (?A) (SG) (?A) (SG) (SG) (SG) (PI) (PI)
                 (PI) (PI) (?B) (?B) (?B) (SG) (PI) (PI) (SG) (SG)
                 (?C) (?C) (?C) (DLTA) (DLTA) (?C) (PI) (PI) (SG)
                 (?D) (?D) (?D) (PI) (PI) (SG) (PI) (PI) (SG) (SG)
 Beta  Orbitals:
       Occupied  (SG) (SG) (SG)
       Virtual   (?A) (?A) (SG) (SG) (?A) (?A) (SG) (SG) (?B) (?A)
                 (?A) (?A) (?A) (?B) (?B) (?B) (?B) (PI) (PI) (SG)
                 (SG) (?C) (?C) (?D) (?D) (?C) (?C) (PI) (?D) (PI)
                 (?E) (?E) (?E) (PI) (PI) (SG) (PI) (PI) (SG) (SG)
 Unable to determine electronic state:  an orbital has unidentified symmetry.
 Alpha  occ. eigenvalues --  -10.64016  -0.73275  -0.38870  -0.31328
 Alpha virt. eigenvalues --   -0.09459   0.03728   0.08281   0.08356   0.08454
 Alpha virt. eigenvalues --    0.17276   0.45826   0.53825   0.56079   0.57852
 Alpha virt. eigenvalues --    0.60755   0.60841   0.66659   0.69143   0.69752
 Alpha virt. eigenvalues --    1.02653   1.06373   1.07050   1.40757   2.27370
 Alpha virt. eigenvalues --    2.68428   2.70010   2.77266   2.77298   2.77718
 Alpha virt. eigenvalues --    2.78685   2.85533   2.85925   3.05662   3.10141
 Alpha virt. eigenvalues --    3.17752   3.18212   3.28191   3.30776   3.66246
 Alpha virt. eigenvalues --    4.03060   4.03242   5.05088  23.58712
  Beta  occ. eigenvalues --  -10.63044  -0.68718  -0.36093
  Beta virt. eigenvalues --   -0.07391  -0.04905   0.02836   0.08115   0.09108
  Beta virt. eigenvalues --    0.10717   0.18378   0.44297   0.57205   0.58044
  Beta virt. eigenvalues --    0.58273   0.61778   0.63260   0.67631   0.70834
  Beta virt. eigenvalues --    0.70991   1.01628   1.05629   1.05748   1.46516
  Beta virt. eigenvalues --    2.29616   2.71829   2.76344   2.80184   2.80334
  Beta virt. eigenvalues --    2.81065   2.81227   3.05863   3.06322   3.08122
  Beta virt. eigenvalues --    3.16348   3.27115   3.27707   3.32393   3.36713
  Beta virt. eigenvalues --    3.72180   4.10568   4.11635   5.62827  23.60615
          Condensed to atoms (all electrons):
               1          2
     1  C    5.928854   0.196329
     2  H    0.196329   0.678488
          Atomic-Atomic Spin Densities.
               1          2
     1  C    0.990283   0.017763
     2  H    0.017763  -0.025810
 Mulliken charges and spin densities:
               1          2
     1  C   -0.125183   1.008047
     2  H    0.125183  -0.008047
 Sum of Mulliken charges =   0.00000   1.00000
 Mulliken charges and spin densities with hydrogens summed into heavy atoms:
               1          2
     1  C    0.000000   1.000000
 Electronic spatial extent (au):  <R**2>=             19.7444
 Charge=              0.0000 electrons
 Dipole moment (field-independent basis, Debye):
    X=              0.0000    Y=              0.0000    Z=             -1.5481  Tot=              1.5481
 Quadrupole moment (field-independent basis, Debye-Ang):
   XX=             -7.8615   YY=             -5.7886   ZZ=             -7.7503
   XY=              0.0000   XZ=              0.0000   YZ=              0.0000
 Traceless Quadrupole moment (field-independent basis, Debye-Ang):
   XX=             -0.7280   YY=              1.3449   ZZ=             -0.6168
   XY=              0.0000   XZ=              0.0000   YZ=              0.0000
 Octapole moment (field-independent basis, Debye-Ang**2):
  XXX=              0.0000  YYY=              0.0000  ZZZ=             -3.1983  XYY=              0.0000
  XXY=              0.0000  XXZ=             -0.8601  XZZ=              0.0000  YZZ=              0.0000
  YYZ=             -0.6396  XYZ=             -0.0000
 Hexadecapole moment (field-independent basis, Debye-Ang**3):
 XXXX=            -10.8100 YYYY=             -5.9798 ZZZZ=            -15.9253 XXXY=              0.0000
 XXXZ=              0.0000 YYYX=              0.0000 YYYZ=              0.0000 ZZZX=              0.0000
 ZZZY=             -0.0000 XXYY=             -2.7997 XXZZ=             -4.6655 YYZZ=             -3.8174
 XXYZ=              0.0000 YYXZ=              0.0000 ZZXY=              0.0000
 N-N= 2.837081720193D+00 E-N=-9.501928239750D+01  KE= 3.836356218409D+01
                          Isotropic Fermi Contact Couplings
        Atom                 a.u.       MegaHertz       Gauss      10(-4) cm-1
     1  C(13)              0.12327     138.58145      49.44931      46.22580
     2  H(1)              -0.00931     -41.62252     -14.85195     -13.88378
 --------------------------------------------------------
       Center         ----  Spin Dipole Couplings  ----
                      3XX-RR        3YY-RR        3ZZ-RR
 --------------------------------------------------------
     1   Atom        1.312257     -0.689445     -0.622812
     2   Atom       -0.002459     -0.075337      0.077795
 --------------------------------------------------------
                        XY            XZ            YZ
 --------------------------------------------------------
     1   Atom        0.000000      0.000000      0.000000
     2   Atom        0.000000      0.000000      0.000000
 --------------------------------------------------------


 ---------------------------------------------------------------------------------
              Anisotropic Spin Dipole Couplings in Principal Axis System
 ---------------------------------------------------------------------------------

       Atom             a.u.   MegaHertz   Gauss  10(-4) cm-1        Axes

              Baa    -0.6894   -92.517   -33.012   -30.860 -0.0000  1.0000  0.0000
     1 C(13)  Bbb    -0.6228   -83.575   -29.822   -27.878  0.0000  0.0000  1.0000
              Bcc     1.3123   176.092    62.834    58.738  1.0000  0.0000  0.0000
 
              Baa    -0.0753   -40.196   -14.343   -13.408 -0.0000  1.0000  0.0000
     2 H(1)   Bbb    -0.0025    -1.312    -0.468    -0.438  1.0000  0.0000  0.0000
              Bcc     0.0778    41.508    14.811    13.846  0.0000  0.0000  1.0000
 

 ---------------------------------------------------------------------------------

 No NMR shielding tensors so no spin-rotation constants.
 Leave Link  601 at Mon Apr 19 21:00:04 2021, MaxMem=   104857600 cpu:               1.5 elap:               0.2
 (Enter /opt/g16avx/l801.exe)
 DoSCS=F DFT=T ScalE2(SS,OS)=  1.000000  1.000000
 Range of M.O.s used for correlation:     1    43
 NBasis=    43 NAE=     4 NBE=     3 NFC=     0 NFV=     0
 NROrb=     43 NOA=     4 NOB=     3 NVA=    39 NVB=    40
 Leave Link  801 at Mon Apr 19 21:00:04 2021, MaxMem=   104857600 cpu:               0.2 elap:               0.0
 (Enter /opt/g16avx/l914.exe)
 UHF ground state
 Doing stability rather than CIS.
 Keep R1 and R2 ints in memory in symmetry-blocked form, NReq=7584990.
 FoFCou: FMM=F IPFlag=           0 FMFlag=           0 FMFlg1=           0
         NFxFlg=           0 DoJE=F BraDBF=F KetDBF=F FulRan=T
         wScrn=  0.000000 ICntrl=       600 IOpCl=  0 I1Cent=           0 NGrid=           0
         NMat0=    1 NMatS0=    946 NMatT0=    0 NMatD0=    1 NMtDS0=    0 NMtDT0=    0
 Petite list used in FoFCou.
 MDV=   104857600 DFT=T DoStab=T Mixed=T DoRPA=F DoScal=F NonHer=F
 Making orbital integer symmetry assigments:
 Orbital symmetries:
 Alpha Orbitals:
       Occupied  (SG) (SG) (SG) (?A)
       Virtual   (?A) (SG) (?A) (SG) (?A) (SG) (SG) (SG) (PI) (PI)
                 (PI) (PI) (?B) (?B) (?B) (SG) (PI) (PI) (SG) (SG)
                 (?C) (?C) (?C) (DLTA) (DLTA) (?C) (PI) (PI) (SG)
                 (?D) (?D) (?D) (PI) (PI) (SG) (PI) (PI) (SG) (SG)
 Beta  Orbitals:
       Occupied  (SG) (SG) (SG)
       Virtual   (?A) (?A) (SG) (SG) (?A) (?A) (SG) (SG) (?B) (?A)
                 (?A) (?A) (?A) (?B) (?B) (?B) (?B) (PI) (PI) (SG)
                 (SG) (?C) (?C) (?D) (?D) (?C) (?C) (PI) (?D) (PI)
                 (?E) (?E) (?E) (PI) (PI) (SG) (PI) (PI) (SG) (SG)
    12 initial guesses have been made.
 Convergence on wavefunction:    0.001000000000000
 Davidson Disk Diagonalization:  ConvIn= 1.00D-03 SkipCon=T Conv= 1.00D-03.
 Max sub-space:   552 roots to seek:    12 dimension of matrix:          276
 Iteration     1 Dimension    12 NMult     0 NNew     12
 CISAX will form    12 AO SS matrices at one time.
 NMat=    12 NSing=    12 JSym2X= 2.
 Excitation Energies [eV] at current iteration:
 Root      1 :     0.132112589766192
 Root      2 :     1.144354279360866
 Root      3 :     4.158686089618654
 Root      4 :     4.576702062285157
 Root      5 :     6.748620194360488
 Root      6 :     7.937146924356554
 Root      7 :     8.145760222419238
 Root      8 :     8.162735722069348
 Root      9 :     8.418762645775278
 Root     10 :     9.010558443000090
 Root     11 :     9.498948237440054
 Root     12 :    10.472269003050052
 Iteration     2 Dimension    24 NMult    12 NNew     12
 CISAX will form    12 AO SS matrices at one time.
 NMat=    12 NSing=    12 JSym2X= 2.
 Root      1 not converged, maximum delta is    0.054529042398231
 Excitation Energies [eV] at current iteration:
 Root      1 :    -0.000131394729305   Change is   -0.132243984495497
 Root      2 :     0.472560948220092   Change is   -0.671793331140774
 Root      3 :     3.216101877461694   Change is   -0.942584212156960
 Root      4 :     3.833958530564058   Change is   -0.742743531721099
 Root      5 :     6.485296618453819   Change is   -0.263323575906669
 Root      6 :     7.734729446340134   Change is   -0.202417478016420
 Root      7 :     8.027035386444707   Change is   -0.135700335624641
 Root      8 :     8.039007922813431   Change is   -0.106752299605806
 Root      9 :     8.109053619695221   Change is   -0.309709026080056
 Root     10 :     8.743042494872290   Change is   -0.267515948127799
 Root     11 :     9.306553924951041   Change is   -0.192394312489014
 Root     12 :     9.754699339813619   Change is   -0.717569663236432
 Iteration     3 Dimension    27 NMult    24 NNew      3
 CISAX will form     3 AO SS matrices at one time.
 NMat=     3 NSing=     3 JSym2X= 2.
 Root      1 not converged, maximum delta is    0.001547861282296
 Excitation Energies [eV] at current iteration:
 Root      1 :    -0.000756345505936   Change is   -0.000624950776631
 Root      2 :     0.406937092773240   Change is   -0.065623855446852
 Root      3 :     3.146970326338980   Change is   -0.069131551122714
 Iteration     4 Dimension    30 NMult    27 NNew      3
 CISAX will form     3 AO SS matrices at one time.
 NMat=     3 NSing=     3 JSym2X= 2.
 Root      1 has converged.
 Excitation Energies [eV] at current iteration:
 Root      1 :    -0.000757924012123   Change is   -0.000001578506187
 Root      2 :     0.404994313113013   Change is   -0.001942779660227
 Root      3 :     3.143105456938805   Change is   -0.003864869400174
 Convergence achieved on expansion vectors.
 ***********************************************************************
 Stability analysis using <AA,BB:AA,BB> singles matrix:
 ***********************************************************************
 1PDM for each excited state written to RWF  633
 Ground to excited state transition densities written to RWF  633

 Eigenvectors of the stability matrix:
 
 Excited state symmetry could not be determined.
 Eigenvector   1:  2.005-?Sym  Eigenvalue=-0.0000279  <S**2>=0.755
      4A ->  5A        0.98600
      4A ->  7A       -0.15139
 The wavefunction is stable under the perturbations considered.
 Leave Link  914 at Mon Apr 19 21:00:06 2021, MaxMem=   104857600 cpu:              15.2 elap:               2.2
 (Enter /opt/g16avx/l508.exe)
 The wavefunction is already stable.
 Leave Link  508 at Mon Apr 19 21:00:06 2021, MaxMem=   104857600 cpu:               0.0 elap:               0.0
 (Enter /opt/g16avx/l601.exe)
 Copying SCF densities to generalized density rwf, IOpCl= 1 IROHF=0.

 **********************************************************************

            Population analysis using the SCF density.

 **********************************************************************

 Orbital symmetries:
 Alpha Orbitals:
       Occupied  (SG) (SG) (SG) (?A)
       Virtual   (?A) (SG) (?A) (SG) (?A) (SG) (SG) (SG) (PI) (PI)
                 (PI) (PI) (?B) (?B) (?B) (SG) (PI) (PI) (SG) (SG)
                 (?C) (?C) (?C) (DLTA) (DLTA) (?C) (PI) (PI) (SG)
                 (?D) (?D) (?D) (PI) (PI) (SG) (PI) (PI) (SG) (SG)
 Beta  Orbitals:
       Occupied  (SG) (SG) (SG)
       Virtual   (?A) (?A) (SG) (SG) (?A) (?A) (SG) (SG) (?B) (?A)
                 (?A) (?A) (?A) (?B) (?B) (?B) (?B) (PI) (PI) (SG)
                 (SG) (?C) (?C) (?D) (?D) (?C) (?C) (PI) (?D) (PI)
                 (?E) (?E) (?E) (PI) (PI) (SG) (PI) (PI) (SG) (SG)
 Unable to determine electronic state:  an orbital has unidentified symmetry.
 Alpha  occ. eigenvalues --  -10.64016  -0.73275  -0.38870  -0.31328
 Alpha virt. eigenvalues --   -0.09459   0.03728   0.08281   0.08356   0.08454
 Alpha virt. eigenvalues --    0.17276   0.45826   0.53825   0.56079   0.57852
 Alpha virt. eigenvalues --    0.60755   0.60841   0.66659   0.69143   0.69752
 Alpha virt. eigenvalues --    1.02653   1.06373   1.07050   1.40757   2.27370
 Alpha virt. eigenvalues --    2.68428   2.70010   2.77266   2.77298   2.77718
 Alpha virt. eigenvalues --    2.78685   2.85533   2.85925   3.05662   3.10141
 Alpha virt. eigenvalues --    3.17752   3.18212   3.28191   3.30776   3.66246
 Alpha virt. eigenvalues --    4.03060   4.03242   5.05088  23.58712
  Beta  occ. eigenvalues --  -10.63044  -0.68718  -0.36093
  Beta virt. eigenvalues --   -0.07391  -0.04905   0.02836   0.08115   0.09108
  Beta virt. eigenvalues --    0.10717   0.18378   0.44297   0.57205   0.58044
  Beta virt. eigenvalues --    0.58273   0.61778   0.63260   0.67631   0.70834
  Beta virt. eigenvalues --    0.70991   1.01628   1.05629   1.05748   1.46516
  Beta virt. eigenvalues --    2.29616   2.71829   2.76344   2.80184   2.80334
  Beta virt. eigenvalues --    2.81065   2.81227   3.05863   3.06322   3.08122
  Beta virt. eigenvalues --    3.16348   3.27115   3.27707   3.32393   3.36713
  Beta virt. eigenvalues --    3.72180   4.10568   4.11635   5.62827  23.60615
          Condensed to atoms (all electrons):
               1          2
     1  C    5.928854   0.196329
     2  H    0.196329   0.678488
          Atomic-Atomic Spin Densities.
               1          2
     1  C    0.990283   0.017763
     2  H    0.017763  -0.025810
 Mulliken charges and spin densities:
               1          2
     1  C   -0.125183   1.008047
     2  H    0.125183  -0.008047
 Sum of Mulliken charges =   0.00000   1.00000
 Mulliken charges and spin densities with hydrogens summed into heavy atoms:
               1          2
     1  C    0.000000   1.000000
 Electronic spatial extent (au):  <R**2>=             19.7444
 Charge=              0.0000 electrons
 Dipole moment (field-independent basis, Debye):
    X=              0.0000    Y=              0.0000    Z=             -1.5481  Tot=              1.5481
 Quadrupole moment (field-independent basis, Debye-Ang):
   XX=             -7.8615   YY=             -5.7886   ZZ=             -7.7503
   XY=              0.0000   XZ=              0.0000   YZ=              0.0000
 Traceless Quadrupole moment (field-independent basis, Debye-Ang):
   XX=             -0.7280   YY=              1.3449   ZZ=             -0.6168
   XY=              0.0000   XZ=              0.0000   YZ=              0.0000
 Octapole moment (field-independent basis, Debye-Ang**2):
  XXX=              0.0000  YYY=              0.0000  ZZZ=             -3.1983  XYY=              0.0000
  XXY=              0.0000  XXZ=             -0.8601  XZZ=              0.0000  YZZ=              0.0000
  YYZ=             -0.6396  XYZ=             -0.0000
 Hexadecapole moment (field-independent basis, Debye-Ang**3):
 XXXX=            -10.8100 YYYY=             -5.9798 ZZZZ=            -15.9253 XXXY=              0.0000
 XXXZ=              0.0000 YYYX=              0.0000 YYYZ=              0.0000 ZZZX=              0.0000
 ZZZY=             -0.0000 XXYY=             -2.7997 XXZZ=             -4.6655 YYZZ=             -3.8174
 XXYZ=              0.0000 YYXZ=              0.0000 ZZXY=              0.0000
 N-N= 2.837081720193D+00 E-N=-9.501928239750D+01  KE= 3.836356218409D+01
                          Isotropic Fermi Contact Couplings
        Atom                 a.u.       MegaHertz       Gauss      10(-4) cm-1
     1  C(13)              0.12327     138.58145      49.44931      46.22580
     2  H(1)              -0.00931     -41.62252     -14.85195     -13.88378
 --------------------------------------------------------
       Center         ----  Spin Dipole Couplings  ----
                      3XX-RR        3YY-RR        3ZZ-RR
 --------------------------------------------------------
     1   Atom        1.312257     -0.689445     -0.622812
     2   Atom       -0.002459     -0.075337      0.077795
 --------------------------------------------------------
                        XY            XZ            YZ
 --------------------------------------------------------
     1   Atom        0.000000      0.000000      0.000000
     2   Atom        0.000000      0.000000      0.000000
 --------------------------------------------------------


 ---------------------------------------------------------------------------------
              Anisotropic Spin Dipole Couplings in Principal Axis System
 ---------------------------------------------------------------------------------

       Atom             a.u.   MegaHertz   Gauss  10(-4) cm-1        Axes

              Baa    -0.6894   -92.517   -33.012   -30.860 -0.0000  1.0000  0.0000
     1 C(13)  Bbb    -0.6228   -83.575   -29.822   -27.878  0.0000  0.0000  1.0000
              Bcc     1.3123   176.092    62.834    58.738  1.0000  0.0000  0.0000
 
              Baa    -0.0753   -40.196   -14.343   -13.408 -0.0000  1.0000  0.0000
     2 H(1)   Bbb    -0.0025    -1.312    -0.468    -0.438  1.0000  0.0000  0.0000
              Bcc     0.0778    41.508    14.811    13.846  0.0000  0.0000  1.0000
 

 ---------------------------------------------------------------------------------

 No NMR shielding tensors so no spin-rotation constants.
 Leave Link  601 at Mon Apr 19 21:00:06 2021, MaxMem=   104857600 cpu:               1.5 elap:               0.2
 (Enter /opt/g16avx/l9999.exe)

 Test job not archived.
 1\1\GINC-VERTEX\Stability\UM062X\Gen\C1H1(2)\XRAY\19-Apr-2021\0\\#P M0
 62X/GEN Integral=UltraFineGrid SCF=NoSymm Stable=(RExt, Opt) IOp(1/33=
 1)\\Database calculations.\\0,2\C,0,0.,0.,0.\H,0,0.,0.,1.11913\\Versio
 n=ES64L-G16RevA.03\HF=-38.4713132\S2=0.752711\S2-1=0.\S2A=0.750003\RMS
 D=4.036e-09\Dipole=0.,0.,0.6090836\Quadrupole=-0.5412791,0.9998806,-0.
 4586015,0.,0.,0.\PG=C*V [C*(H1C1)]\\@


 The hours that make us happy make us wise.
                         -- John Masefield
 Job cpu time:       0 days  0 hours  0 minutes 26.9 seconds.
 Elapsed time:       0 days  0 hours  0 minutes  3.9 seconds.
 File lengths (MBytes):  RWF=      7 Int=      0 D2E=      0 Chk=      1 Scr=      1
 Normal termination of Gaussian 16 at Mon Apr 19 21:00:06 2021.
