 Entering Gaussian System, Link 0=/s/ls4/users/knvvv/bin/g16sse/g16
 Input=data/database/M062X--def2-QZVPPD--203_methanol_W4-11.gjf
 Output=data/database/M062X--def2-QZVPPD--203_methanol_W4-11.log
 Initial command:
 /s/ls4/users/knvvv/bin/g16sse/l1.exe "/s/ls4/users/knvvv/bin/scratch/Gau-8108.inp" -scrdir="/s/ls4/users/knvvv/bin/scratch/"
 Entering Link 1 = /s/ls4/users/knvvv/bin/g16sse/l1.exe PID=      8109.
  
 Copyright (c) 1988,1990,1992,1993,1995,1998,2003,2009,2016,
            Gaussian, Inc.  All Rights Reserved.
  
 This is part of the Gaussian(R) 16 program.  It is based on
 the Gaussian(R) 09 system (copyright 2009, Gaussian, Inc.),
 the Gaussian(R) 03 system (copyright 2003, Gaussian, Inc.),
 the Gaussian(R) 98 system (copyright 1998, Gaussian, Inc.),
 the Gaussian(R) 94 system (copyright 1995, Gaussian, Inc.),
 the Gaussian 92(TM) system (copyright 1992, Gaussian, Inc.),
 the Gaussian 90(TM) system (copyright 1990, Gaussian, Inc.),
 the Gaussian 88(TM) system (copyright 1988, Gaussian, Inc.),
 the Gaussian 86(TM) system (copyright 1986, Carnegie Mellon
 University), and the Gaussian 82(TM) system (copyright 1983,
 Carnegie Mellon University). Gaussian is a federally registered
 trademark of Gaussian, Inc.
  
 This software contains proprietary and confidential information,
 including trade secrets, belonging to Gaussian, Inc.
  
 This software is provided under written license and may be
 used, copied, transmitted, or stored only in accord with that
 written license.
  
 The following legend is applicable only to US Government
 contracts under FAR:
  
                    RESTRICTED RIGHTS LEGEND
  
 Use, reproduction and disclosure by the US Government is
 subject to restrictions as set forth in subparagraphs (a)
 and (c) of the Commercial Computer Software - Restricted
 Rights clause in FAR 52.227-19.
  
 Gaussian, Inc.
 340 Quinnipiac St., Bldg. 40, Wallingford CT 06492
  
  
 ---------------------------------------------------------------
 Warning -- This program may not be used in any manner that
 competes with the business of Gaussian, Inc. or will provide
 assistance to any competitor of Gaussian, Inc.  The licensee
 of this program is prohibited from giving any competitor of
 Gaussian, Inc. access to this program.  By using this program,
 the user acknowledges that Gaussian, Inc. is engaged in the
 business of creating and licensing software in the field of
 computational chemistry and represents and warrants to the
 licensee that it is not a competitor of Gaussian, Inc. and that
 it will not use this program in any manner prohibited above.
 ---------------------------------------------------------------
  

 Cite this work as:
 Gaussian 16, Revision A.03,
 M. J. Frisch, G. W. Trucks, H. B. Schlegel, G. E. Scuseria, 
 M. A. Robb, J. R. Cheeseman, G. Scalmani, V. Barone, 
 G. A. Petersson, H. Nakatsuji, X. Li, M. Caricato, A. V. Marenich, 
 J. Bloino, B. G. Janesko, R. Gomperts, B. Mennucci, H. P. Hratchian, 
 J. V. Ortiz, A. F. Izmaylov, J. L. Sonnenberg, D. Williams-Young, 
 F. Ding, F. Lipparini, F. Egidi, J. Goings, B. Peng, A. Petrone, 
 T. Henderson, D. Ranasinghe, V. G. Zakrzewski, J. Gao, N. Rega, 
 G. Zheng, W. Liang, M. Hada, M. Ehara, K. Toyota, R. Fukuda, 
 J. Hasegawa, M. Ishida, T. Nakajima, Y. Honda, O. Kitao, H. Nakai, 
 T. Vreven, K. Throssell, J. A. Montgomery, Jr., J. E. Peralta, 
 F. Ogliaro, M. J. Bearpark, J. J. Heyd, E. N. Brothers, K. N. Kudin, 
 V. N. Staroverov, T. A. Keith, R. Kobayashi, J. Normand, 
 K. Raghavachari, A. P. Rendell, J. C. Burant, S. S. Iyengar, 
 J. Tomasi, M. Cossi, J. M. Millam, M. Klene, C. Adamo, R. Cammi, 
 J. W. Ochterski, R. L. Martin, K. Morokuma, O. Farkas, 
 J. B. Foresman, and D. J. Fox, Gaussian, Inc., Wallingford CT, 2016.
 
 ******************************************
 Gaussian 16:  ES64L-G16RevA.03 25-Dec-2016
                17-Apr-2021 
 ******************************************
 %RWF=temp2_68163,70GB
 %nprocshared=48
 Will use up to   48 processors via shared memory.
 Default route: MaxDisk=80GB
 ----------------------------------------------------------------------
 #P M062X/GEN Integral=UltraFineGrid SCF=NoSymm Stable=(RExt, Opt) IOp(
 1/33=1)
 ----------------------------------------------------------------------
 1/33=1,38=1,172=1/1;
 2/12=2,17=6,18=5,40=1/2;
 3/5=7,11=2,25=1,30=1,74=-55,75=-5/1,2,3;
 4/9=2/1;
 5/5=2,38=5/2;
 6/7=2,8=2,9=2,10=2,28=1/1;
 8/6=1,10=90,11=11/1;
 9/8=-3,42=1,46=1/14;
 5/5=2,8=3,17=40,38=5/8(-2);
 6/7=2,8=2,9=2,10=2,28=1/1;
 99/5=1,9=1/99;
 Leave Link    1 at Sat Apr 17 19:35:10 2021, MaxMem=           0 cpu:               8.4 elap:               0.2
 (Enter /s/ls4/users/knvvv/bin/g16sse/l101.exe)
 ONIOM data not found on unit 2.
 ----------------------
 Database calculations.
 ----------------------
 TstMul:  ICh=     0
 TstMul:  Mul=     1
 TstMul:  ICh=     0
 TstMul:  Mul=     1
 Symbolic Z-matrix:
 Charge =  0 Multiplicity = 1
 C                    -0.04792   0.66829   0. 
 H                    -1.09071   0.97767   0. 
 H                     0.43442   1.08152   0.88985 
 H                     0.43442   1.08152  -0.88985 
 O                    -0.04109  -0.75096   0. 
 H                     0.87129  -1.04203   0. 
 
 RdStrC is calling ZToCFu for IStruc=1 NZ=     6.
 PrtBox:  NBox=     1 Levels=  1 BoxLen=    8.00 SMaxX=        4.01
          Shift=            2.061144            1.969152            1.681581
 Box      1 Number                   0 centers from      1 to      6:
 After GenITR:
 ITRead=  0  0  0  0  0  0
 MicOpt= -1 -1 -1 -1 -1 -1
 ITRead=  0  0  0  0  0  0
 MicOpt= -1 -1 -1 -1 -1 -1
 NAtoms=      6 NQM=        6 NQMF=       0 NMMI=      0 NMMIF=      0
                NMic=       0 NMicF=      0.
                    Isotopes and Nuclear Properties:
 (Nuclear quadrupole moments (NQMom) in fm**2, nuclear magnetic moments (NMagM)
  in nuclear magnetons)

  Atom         1           2           3           4           5           6
 IAtWgt=          12           1           1           1          16           1
 AtmWgt=  12.0000000   1.0078250   1.0078250   1.0078250  15.9949146   1.0078250
 NucSpn=           0           1           1           1           0           1
 AtZEff=  -0.0000000  -0.0000000  -0.0000000  -0.0000000  -0.0000000  -0.0000000
 NQMom=    0.0000000   0.0000000   0.0000000   0.0000000   0.0000000   0.0000000
 NMagM=    0.0000000   2.7928460   2.7928460   2.7928460   0.0000000   2.7928460
 AtZNuc=   6.0000000   1.0000000   1.0000000   1.0000000   8.0000000   1.0000000
 No MM parameters found.
 Leave Link  101 at Sat Apr 17 19:35:10 2021, MaxMem=   104857600 cpu:               6.7 elap:               0.2
 (Enter /s/ls4/users/knvvv/bin/g16sse/l202.exe)
                          Input orientation:                          
 ---------------------------------------------------------------------
 Center     Atomic      Atomic             Coordinates (Angstroms)
 Number     Number       Type             X           Y           Z
 ---------------------------------------------------------------------
      1          6           0       -0.047917    0.668294    0.000000
      2          1           0       -1.090710    0.977673    0.000000
      3          1           0        0.434416    1.081524    0.889854
      4          1           0        0.434416    1.081524   -0.889854
      5          8           0       -0.041092   -0.750955    0.000000
      6          1           0        0.871294   -1.042031    0.000000
 ---------------------------------------------------------------------
                    Distance matrix (angstroms):
                    1          2          3          4          5
     1  C    0.000000
     2  H    1.087719   0.000000
     3  H    1.093273   1.768795   0.000000
     4  H    1.093273   1.768795   1.779709   0.000000
     5  O    1.419266   2.022339   2.091872   2.091872   0.000000
     6  H    1.941689   2.815788   2.343541   2.343541   0.957691
                    6
     6  H    0.000000
 Stoichiometry    CH4O
 Framework group  CS[SG(CH2O),X(H2)]
 Deg. of freedom     8
 Full point group                 CS      NOp   2
 Largest Abelian subgroup         CS      NOp   2
 Largest concise Abelian subgroup CS      NOp   2
                         Standard orientation:                         
 ---------------------------------------------------------------------
 Center     Atomic      Atomic             Coordinates (Angstroms)
 Number     Number       Type             X           Y           Z
 ---------------------------------------------------------------------
      1          6           0       -0.046573    0.662925    0.000000
      2          1           0       -1.087867    0.977315    0.000000
      3          1           0        0.437742    1.073831    0.889854
      4          1           0        0.437742    1.073831   -0.889854
      5          8           0       -0.046573   -0.756341    0.000000
      6          1           0        0.864403   -1.051800    0.000000
 ---------------------------------------------------------------------
 Rotational constants (GHZ):         128.6789945          24.8488574          23.9818329
 Leave Link  202 at Sat Apr 17 19:35:10 2021, MaxMem=   104857600 cpu:               5.9 elap:               0.1
 (Enter /s/ls4/users/knvvv/bin/g16sse/l301.exe)
 General basis read from cards:  (5D, 7F)
 Centers:       2      3      4      6
 S 4 1.00
     Exponent=  1.9069169000D+02 Coefficients=  7.0815167000D-04
     Exponent=  2.8605532000D+01 Coefficients=  5.4678827000D-03
     Exponent=  6.5095943000D+00 Coefficients=  2.7966605000D-02
     Exponent=  1.8412455000D+00 Coefficients=  1.0764538000D-01
 S 1 1.00
     Exponent=  5.9853725000D-01 Coefficients=  1.0000000000D+00
 S 1 1.00
     Exponent=  2.1397624000D-01 Coefficients=  1.0000000000D+00
 S 1 1.00
     Exponent=  8.0316286000D-02 Coefficients=  1.0000000000D+00
 P 1 1.00
     Exponent=  2.2920000000D+00 Coefficients=  1.0000000000D+00
 P 1 1.00
     Exponent=  8.3800000000D-01 Coefficients=  1.0000000000D+00
 P 1 1.00
     Exponent=  2.9200000000D-01 Coefficients=  1.0000000000D+00
 P 1 1.00
     Exponent=  8.4063199228D-02 Coefficients=  1.0000000000D+00
 D 1 1.00
     Exponent=  2.0620000000D+00 Coefficients=  1.0000000000D+00
 D 1 1.00
     Exponent=  6.6200000000D-01 Coefficients=  1.0000000000D+00
 F 1 1.00
     Exponent=  1.3970000000D+00 Coefficients=  1.0000000000D+00
 ****
 Centers:       1
 S 8 1.00
     Exponent=  6.7025071029D+04 Coefficients=  3.8736308501D-05
     Exponent=  1.0039986538D+04 Coefficients=  3.0107917575D-04
     Exponent=  2.2849316911D+03 Coefficients=  1.5787918095D-03
     Exponent=  6.4714122130D+02 Coefficients=  6.6087087195D-03
     Exponent=  2.1109472335D+02 Coefficients=  2.3367123250D-02
     Exponent=  7.6177643862D+01 Coefficients=  7.0420716898D-02
     Exponent=  2.9633839163D+01 Coefficients=  1.7360344953D-01
     Exponent=  1.2187785081D+01 Coefficients=  3.2292305648D-01
 S 2 1.00
     Exponent=  5.3026006299D+01 Coefficients=  7.4897404492D-02
     Exponent=  1.5258502776D+01 Coefficients=  7.6136220983D-01
 S 1 1.00
     Exponent=  5.2403957464D+00 Coefficients=  1.0000000000D+00
 S 1 1.00
     Exponent=  2.2905022379D+00 Coefficients=  1.0000000000D+00
 S 1 1.00
     Exponent=  6.9673283006D-01 Coefficients=  1.0000000000D+00
 S 1 1.00
     Exponent=  2.7599337363D-01 Coefficients=  1.0000000000D+00
 S 1 1.00
     Exponent=  1.0739884389D-01 Coefficients=  1.0000000000D+00
 S 1 1.00
     Exponent=  4.4981404899D-02 Coefficients=  1.0000000000D+00
 P 5 1.00
     Exponent=  1.0512555082D+02 Coefficients=  8.4647553844D-04
     Exponent=  2.4884461066D+01 Coefficients=  6.6274038534D-03
     Exponent=  7.8637230826D+00 Coefficients=  3.0120390419D-02
     Exponent=  2.8407001835D+00 Coefficients=  9.9951435476D-02
     Exponent=  1.1227137335D+00 Coefficients=  2.3826299282D-01
 P 1 1.00
     Exponent=  4.6050725555D-01 Coefficients=  1.0000000000D+00
 P 1 1.00
     Exponent=  1.8937530913D-01 Coefficients=  1.0000000000D+00
 P 1 1.00
     Exponent=  7.5983791611D-02 Coefficients=  1.0000000000D+00
 D 1 1.00
     Exponent=  1.8480000000D+00 Coefficients=  1.0000000000D+00
 D 1 1.00
     Exponent=  6.4900000000D-01 Coefficients=  1.0000000000D+00
 D 1 1.00
     Exponent=  2.2800000000D-01 Coefficients=  1.0000000000D+00
 D 1 1.00
     Exponent=  7.6889830417D-02 Coefficients=  1.0000000000D+00
 F 1 1.00
     Exponent=  1.4190000000D+00 Coefficients=  1.0000000000D+00
 F 1 1.00
     Exponent=  4.8500000000D-01 Coefficients=  1.0000000000D+00
 G 1 1.00
     Exponent=  1.0110000000D+00 Coefficients=  1.0000000000D+00
 ****
 Centers:       5
 S 8 1.00
     Exponent=  1.1650646908D+05 Coefficients=  4.0383857939D-05
     Exponent=  1.7504349724D+04 Coefficients=  3.1255139004D-04
     Exponent=  3.9934513230D+03 Coefficients=  1.6341473495D-03
     Exponent=  1.1330063186D+03 Coefficients=  6.8283224757D-03
     Exponent=  3.6999569594D+02 Coefficients=  2.4124410221D-02
     Exponent=  1.3362074349D+02 Coefficients=  7.2730206154D-02
     Exponent=  5.2035643649D+01 Coefficients=  1.7934429892D-01
     Exponent=  2.1461939313D+01 Coefficients=  3.3059588895D-01
 S 2 1.00
     Exponent=  8.9835051252D+01 Coefficients=  9.6468652996D-02
     Exponent=  2.6428010844D+01 Coefficients=  9.4117481120D-01
 S 1 1.00
     Exponent=  9.2822824649D+00 Coefficients=  1.0000000000D+00
 S 1 1.00
     Exponent=  4.0947728533D+00 Coefficients=  1.0000000000D+00
 S 1 1.00
     Exponent=  1.3255349078D+00 Coefficients=  1.0000000000D+00
 S 1 1.00
     Exponent=  5.1877230787D-01 Coefficients=  1.0000000000D+00
 S 1 1.00
     Exponent=  1.9772676454D-01 Coefficients=  1.0000000000D+00
 S 1 1.00
     Exponent=  6.9638535104D-02 Coefficients=  1.0000000000D+00
 P 5 1.00
     Exponent=  1.9115255810D+02 Coefficients=  2.5115697705D-03
     Exponent=  4.5233356739D+01 Coefficients=  2.0039240864D-02
     Exponent=  1.4353465922D+01 Coefficients=  9.3609064762D-02
     Exponent=  5.2422371832D+00 Coefficients=  3.0618127124D-01
     Exponent=  2.0792418599D+00 Coefficients=  6.7810501439D-01
 P 1 1.00
     Exponent=  8.4282371424D-01 Coefficients=  1.0000000000D+00
 P 1 1.00
     Exponent=  3.3617694891D-01 Coefficients=  1.0000000000D+00
 P 1 1.00
     Exponent=  1.2863997974D-01 Coefficients=  1.0000000000D+00
 P 1 1.00
     Exponent=  4.3598162776D-02 Coefficients=  1.0000000000D+00
 D 1 1.00
     Exponent=  3.7750000000D+00 Coefficients=  1.0000000000D+00
 D 1 1.00
     Exponent=  1.3000000000D+00 Coefficients=  1.0000000000D+00
 D 1 1.00
     Exponent=  4.4400000000D-01 Coefficients=  1.0000000000D+00
 D 1 1.00
     Exponent=  1.2546378695D-01 Coefficients=  1.0000000000D+00
 F 1 1.00
     Exponent=  2.6660000000D+00 Coefficients=  1.0000000000D+00
 F 1 1.00
     Exponent=  8.5900000000D-01 Coefficients=  1.0000000000D+00
 G 1 1.00
     Exponent=  1.8460000000D+00 Coefficients=  1.0000000000D+00
 ****
 Ernie: Thresh=  0.10000D-02 Tol=  0.10000D-05 Strict=F.
 There are   198 symmetry adapted cartesian basis functions of A'  symmetry.
 There are   115 symmetry adapted cartesian basis functions of A"  symmetry.
 There are   161 symmetry adapted basis functions of A'  symmetry.
 There are   100 symmetry adapted basis functions of A"  symmetry.
   261 basis functions,   365 primitive gaussians,   313 cartesian basis functions
     9 alpha electrons        9 beta electrons
       nuclear repulsion energy        40.3559994713 Hartrees.
 IExCor= 4336 DFT=T Ex+Corr=M062X ExCW=0 ScaHFX=  0.540000
 ScaDFX=  1.000000  1.000000  1.000000  1.000000 ScalE2=  1.000000  1.000000
 IRadAn=      5 IRanWt=     -1 IRanGd=            0 ICorTp=0 IEmpDi=  4
 NAtoms=    6 NActive=    6 NUniq=    5 SFac= 1.44D+00 NAtFMM=   60 NAOKFM=F Big=F
 Integral buffers will be    131072 words long.
 Raffenetti 2 integral format.
 Two-electron integral symmetry is turned on.
 Leave Link  301 at Sat Apr 17 19:35:10 2021, MaxMem=   104857600 cpu:               7.8 elap:               0.2
 (Enter /s/ls4/users/knvvv/bin/g16sse/l302.exe)
 NPDir=0 NMtPBC=     1 NCelOv=     1 NCel=       1 NClECP=     1 NCelD=      1
         NCelK=      1 NCelE2=     1 NClLst=     1 CellRange=     0.0.
 One-electron integrals computed using PRISM.
 One-electron integral symmetry used in STVInt
 PrsmSu:  requested number of processors reduced to:   4 ShMem   1 Linda.
 PrsmSu:  requested number of processors reduced to:  21 ShMem   1 Linda.
 NBasis=   261 RedAO= T EigKep=  1.50D-06  NBF=   161   100
 NBsUse=   261 1.00D-06 EigRej= -1.00D+00 NBFU=   161   100
 Precomputing XC quadrature grid using
 IXCGrd= 4 IRadAn=           5 IRanWt=          -1 IRanGd=           0 AccXCQ= 0.00D+00.
 Generated NRdTot=       0 NPtTot=           0 NUsed=           0 NTot=          32
 NSgBfM=   313   313   313   313   313 MxSgAt=     6 MxSgA2=     6.
 Leave Link  302 at Sat Apr 17 19:35:16 2021, MaxMem=   104857600 cpu:             280.7 elap:               6.1
 (Enter /s/ls4/users/knvvv/bin/g16sse/l303.exe)
 DipDrv:  MaxL=1.
 Leave Link  303 at Sat Apr 17 19:35:17 2021, MaxMem=   104857600 cpu:              44.7 elap:               1.0
 (Enter /s/ls4/users/knvvv/bin/g16sse/l401.exe)
 SCF N**3 symmetry information disabled.
 ExpMin= 4.36D-02 ExpMax= 1.17D+05 ExpMxC= 1.13D+03 IAcc=3 IRadAn=         5 AccDes= 0.00D+00
 Harris functional with IExCor= 1009 and IRadAn=       5 diagonalized for initial guess.
 HarFok:  IExCor= 1009 AccDes= 0.00D+00 IRadAn=         5 IDoV= 1 UseB2=F ITyADJ=14
 ICtDFT=  3500011 ScaDFX=  1.000000  1.000000  1.000000  1.000000
 FoFCou: FMM=F IPFlag=           0 FMFlag=      100000 FMFlg1=           0
         NFxFlg=           0 DoJE=T BraDBF=F KetDBF=T FulRan=T
         wScrn=  0.000000 ICntrl=       500 IOpCl=  0 I1Cent=   200000004 NGrid=           0
         NMat0=    1 NMatS0=      1 NMatT0=    0 NMatD0=    1 NMtDS0=    0 NMtDT0=    0
 Petite list used in FoFCou.
 CoulSu:  requested number of processors reduced to:  21 ShMem   1 Linda.
 CoulSu:  requested number of processors reduced to:  21 ShMem   1 Linda.
 CoulSu:  requested number of processors reduced to:  21 ShMem   1 Linda.
 CoulSu:  requested number of processors reduced to:  21 ShMem   1 Linda.
 Harris En= -115.705121815796    
 JPrj=0 DoOrth=F DoCkMO=F.
 Initial guess orbital symmetries:
       Occupied  (A') (A') (A') (A') (A') (A") (A') (A') (A")
       Virtual   (A') (A') (A') (A") (A') (A') (A") (A') (A") (A')
                 (A') (A') (A') (A') (A") (A") (A') (A") (A') (A')
                 (A") (A') (A") (A') (A') (A') (A") (A') (A") (A')
                 (A') (A") (A') (A") (A') (A') (A") (A') (A') (A")
                 (A') (A') (A") (A') (A') (A") (A') (A") (A") (A')
                 (A') (A") (A') (A') (A") (A') (A') (A") (A') (A')
                 (A') (A') (A") (A') (A') (A") (A') (A") (A') (A')
                 (A") (A') (A") (A") (A') (A") (A') (A') (A') (A")
                 (A') (A") (A') (A') (A") (A") (A') (A') (A') (A")
                 (A') (A") (A') (A") (A') (A') (A") (A') (A") (A')
                 (A") (A') (A') (A") (A') (A") (A') (A") (A') (A')
                 (A') (A") (A') (A") (A') (A') (A") (A') (A') (A')
                 (A") (A") (A') (A") (A') (A') (A") (A') (A") (A')
                 (A') (A") (A') (A') (A") (A') (A") (A') (A') (A")
                 (A') (A") (A') (A") (A') (A") (A') (A') (A") (A')
                 (A") (A') (A") (A") (A") (A') (A') (A") (A') (A')
                 (A') (A") (A') (A') (A") (A') (A') (A") (A") (A')
                 (A') (A") (A") (A') (A') (A') (A") (A") (A') (A')
                 (A") (A') (A') (A") (A') (A") (A') (A") (A') (A")
                 (A') (A") (A') (A') (A") (A') (A') (A") (A") (A')
                 (A') (A") (A') (A') (A') (A") (A') (A") (A") (A')
                 (A") (A') (A') (A") (A') (A') (A") (A') (A') (A")
                 (A") (A') (A') (A") (A') (A') (A") (A") (A') (A")
                 (A') (A") (A') (A') (A") (A') (A") (A') (A") (A')
                 (A") (A') (A') (A') (A") (A') (A') (A') (A') (A')
                 (A') (A')
 The electronic state of the initial guess is 1-A'.
 Leave Link  401 at Sat Apr 17 19:35:21 2021, MaxMem=   104857600 cpu:             148.2 elap:               3.3
 (Enter /s/ls4/users/knvvv/bin/g16sse/l502.exe)
 Integral symmetry usage will be decided dynamically.
 Closed shell SCF:
 Using DIIS extrapolation, IDIIS=  1040.
 NGot=   104857600 LenX=   104643401 LenY=   104544991
 Requested convergence on RMS density matrix=1.00D-08 within 128 cycles.
 Requested convergence on MAX density matrix=1.00D-06.
 Requested convergence on             energy=1.00D-06.
 No special actions if energy rises.
 Fock matrices will be formed incrementally for  20 cycles.

 Cycle   1  Pass 1  IDiag  1:
 FoFJK:  IHMeth= 1 ICntrl=       0 DoSepK=F KAlg= 0 I1Cent=           0 FoldK=F
 IRaf= 990000000 NMat=       1 IRICut=       1 DoRegI=T DoRafI=F ISym2E= 1 IDoP0=0 IntGTp=1.
 FoFCou: FMM=F IPFlag=           0 FMFlag=      100000 FMFlg1=           0
         NFxFlg=           0 DoJE=F BraDBF=F KetDBF=F FulRan=T
         wScrn=  0.000000 ICntrl=         0 IOpCl=  0 I1Cent=           0 NGrid=           0
         NMat0=    1 NMatS0=      1 NMatT0=    0 NMatD0=    1 NMtDS0=    0 NMtDT0=    0
 Petite list used in FoFCou.
 CoulSu:  requested number of processors reduced to:  21 ShMem   1 Linda.
 E= -115.642167038440    
 DIIS: error= 3.05D-02 at cycle   1 NSaved=   1.
 NSaved= 1 IEnMin= 1 EnMin= -115.642167038440     IErMin= 1 ErrMin= 3.05D-02
 ErrMax= 3.05D-02  0.00D+00 EMaxC= 1.00D-01 BMatC= 1.53D-01 BMatP= 1.53D-01
 IDIUse=3 WtCom= 6.95D-01 WtEn= 3.05D-01
 Coeff-Com:  0.100D+01
 Coeff-En:   0.100D+01
 Coeff:      0.100D+01
 Gap=     0.301 Goal=   None    Shift=    0.000
 GapD=    0.301 DampG=1.000 DampE=0.500 DampFc=0.5000 IDamp=-1.
 Damping current iteration by 5.00D-01
 RMSDP=4.80D-03 MaxDP=3.82D-01              OVMax= 1.38D-01

 Cycle   2  Pass 1  IDiag  1:
 RMSU=  1.62D-03    CP:  7.55D-01
 CoulSu:  requested number of processors reduced to:  21 ShMem   1 Linda.
 E= -115.683586620891     Delta-E=       -0.041419582452 Rises=F Damp=T
 DIIS: error= 1.65D-02 at cycle   2 NSaved=   2.
 NSaved= 2 IEnMin= 2 EnMin= -115.683586620891     IErMin= 2 ErrMin= 1.65D-02
 ErrMax= 1.65D-02  0.00D+00 EMaxC= 1.00D-01 BMatC= 1.87D-02 BMatP= 1.53D-01
 IDIUse=3 WtCom= 8.35D-01 WtEn= 1.65D-01
 Coeff-Com: -0.956D-01 0.110D+01
 Coeff-En:   0.000D+00 0.100D+01
 Coeff:     -0.798D-01 0.108D+01
 Gap=     0.380 Goal=   None    Shift=    0.000
 RMSDP=3.10D-03 MaxDP=1.64D-01 DE=-4.14D-02 OVMax= 8.34D-02

 Cycle   3  Pass 1  IDiag  1:
 RMSU=  1.43D-03    CP:  4.67D-01  2.12D+00
 CoulSu:  requested number of processors reduced to:  21 ShMem   1 Linda.
 E= -115.725489472389     Delta-E=       -0.041902851498 Rises=F Damp=F
 DIIS: error= 4.59D-03 at cycle   3 NSaved=   3.
 NSaved= 3 IEnMin= 3 EnMin= -115.725489472389     IErMin= 3 ErrMin= 4.59D-03
 ErrMax= 4.59D-03  0.00D+00 EMaxC= 1.00D-01 BMatC= 4.28D-03 BMatP= 1.87D-02
 IDIUse=3 WtCom= 9.54D-01 WtEn= 4.59D-02
 Coeff-Com: -0.122D+00 0.349D+00 0.773D+00
 Coeff-En:   0.000D+00 0.000D+00 0.100D+01
 Coeff:     -0.116D+00 0.333D+00 0.783D+00
 Gap=     0.362 Goal=   None    Shift=    0.000
 RMSDP=3.41D-04 MaxDP=2.24D-02 DE=-4.19D-02 OVMax= 1.53D-02

 Cycle   4  Pass 1  IDiag  1:
 RMSU=  3.11D-04    CP:  4.82D-01  2.11D+00  1.06D+00
 CoulSu:  requested number of processors reduced to:  21 ShMem   1 Linda.
 E= -115.727722389305     Delta-E=       -0.002232916916 Rises=F Damp=F
 DIIS: error= 2.09D-03 at cycle   4 NSaved=   4.
 NSaved= 4 IEnMin= 4 EnMin= -115.727722389305     IErMin= 4 ErrMin= 2.09D-03
 ErrMax= 2.09D-03  0.00D+00 EMaxC= 1.00D-01 BMatC= 6.64D-04 BMatP= 4.28D-03
 IDIUse=3 WtCom= 9.79D-01 WtEn= 2.09D-02
 Coeff-Com: -0.457D-01 0.984D-01 0.366D+00 0.581D+00
 Coeff-En:   0.000D+00 0.000D+00 0.731D-01 0.927D+00
 Coeff:     -0.448D-01 0.964D-01 0.360D+00 0.588D+00
 Gap=     0.362 Goal=   None    Shift=    0.000
 RMSDP=6.79D-05 MaxDP=3.13D-03 DE=-2.23D-03 OVMax= 6.27D-03

 Cycle   5  Pass 1  IDiag  1:
 RMSU=  5.27D-05    CP:  4.82D-01  2.10D+00  1.05D+00  8.89D-01
 CoulSu:  requested number of processors reduced to:  21 ShMem   1 Linda.
 E= -115.728216741084     Delta-E=       -0.000494351779 Rises=F Damp=F
 DIIS: error= 2.52D-04 at cycle   5 NSaved=   5.
 NSaved= 5 IEnMin= 5 EnMin= -115.728216741084     IErMin= 5 ErrMin= 2.52D-04
 ErrMax= 2.52D-04  0.00D+00 EMaxC= 1.00D-01 BMatC= 7.93D-06 BMatP= 6.64D-04
 IDIUse=3 WtCom= 9.97D-01 WtEn= 2.52D-03
 Coeff-Com: -0.643D-02 0.123D-01 0.627D-01 0.162D+00 0.770D+00
 Coeff-En:   0.000D+00 0.000D+00 0.000D+00 0.000D+00 0.100D+01
 Coeff:     -0.642D-02 0.123D-01 0.625D-01 0.161D+00 0.770D+00
 Gap=     0.362 Goal=   None    Shift=    0.000
 RMSDP=3.44D-05 MaxDP=1.75D-03 DE=-4.94D-04 OVMax= 6.04D-04

 Cycle   6  Pass 1  IDiag  1:
 RMSU=  2.10D-05    CP:  4.84D-01  2.10D+00  1.04D+00  9.17D-01  1.32D+00
 CoulSu:  requested number of processors reduced to:  21 ShMem   1 Linda.
 E= -115.728222348475     Delta-E=       -0.000005607391 Rises=F Damp=F
 DIIS: error= 1.72D-05 at cycle   6 NSaved=   6.
 NSaved= 6 IEnMin= 6 EnMin= -115.728222348475     IErMin= 6 ErrMin= 1.72D-05
 ErrMax= 1.72D-05  0.00D+00 EMaxC= 1.00D-01 BMatC= 7.55D-08 BMatP= 7.93D-06
 IDIUse=1 WtCom= 1.00D+00 WtEn= 0.00D+00
 Coeff-Com:  0.210D-02-0.420D-02-0.152D-01-0.198D-01-0.229D-01 0.106D+01
 Coeff:      0.210D-02-0.420D-02-0.152D-01-0.198D-01-0.229D-01 0.106D+01
 Gap=     0.362 Goal=   None    Shift=    0.000
 RMSDP=1.20D-05 MaxDP=6.61D-04 DE=-5.61D-06 OVMax= 1.05D-04

 Cycle   7  Pass 1  IDiag  1:
 RMSU=  2.23D-06    CP:  4.84D-01  2.09D+00  1.04D+00  9.35D-01  1.45D+00
                    CP:  1.23D+00
 CoulSu:  requested number of processors reduced to:  21 ShMem   1 Linda.
 E= -115.728222429142     Delta-E=       -0.000000080667 Rises=F Damp=F
 DIIS: error= 2.06D-06 at cycle   7 NSaved=   7.
 NSaved= 7 IEnMin= 7 EnMin= -115.728222429142     IErMin= 7 ErrMin= 2.06D-06
 ErrMax= 2.06D-06  0.00D+00 EMaxC= 1.00D-01 BMatC= 8.96D-10 BMatP= 7.55D-08
 IDIUse=1 WtCom= 1.00D+00 WtEn= 0.00D+00
 Coeff-Com: -0.414D-04 0.408D-04 0.163D-03-0.471D-03-0.745D-02-0.367D-01
 Coeff-Com:  0.104D+01
 Coeff:     -0.414D-04 0.408D-04 0.163D-03-0.471D-03-0.745D-02-0.367D-01
 Coeff:      0.104D+01
 Gap=     0.362 Goal=   None    Shift=    0.000
 RMSDP=1.41D-06 MaxDP=1.00D-04 DE=-8.07D-08 OVMax= 2.29D-05

 Cycle   8  Pass 1  IDiag  1:
 RMSU=  3.85D-07    CP:  4.84D-01  2.09D+00  1.04D+00  9.38D-01  1.45D+00
                    CP:  1.22D+00  1.15D+00
 CoulSu:  requested number of processors reduced to:  21 ShMem   1 Linda.
 E= -115.728222430788     Delta-E=       -0.000000001646 Rises=F Damp=F
 DIIS: error= 5.92D-07 at cycle   8 NSaved=   8.
 NSaved= 8 IEnMin= 8 EnMin= -115.728222430788     IErMin= 8 ErrMin= 5.92D-07
 ErrMax= 5.92D-07  0.00D+00 EMaxC= 1.00D-01 BMatC= 5.59D-11 BMatP= 8.96D-10
 IDIUse=1 WtCom= 1.00D+00 WtEn= 0.00D+00
 Coeff-Com: -0.511D-04 0.103D-03 0.283D-03 0.308D-03-0.196D-03-0.271D-01
 Coeff-Com:  0.261D-01 0.100D+01
 Coeff:     -0.511D-04 0.103D-03 0.283D-03 0.308D-03-0.196D-03-0.271D-01
 Coeff:      0.261D-01 0.100D+01
 Gap=     0.362 Goal=   None    Shift=    0.000
 RMSDP=1.33D-07 MaxDP=4.55D-06 DE=-1.65D-09 OVMax= 4.78D-06

 Cycle   9  Pass 1  IDiag  1:
 RMSU=  7.64D-08    CP:  4.84D-01  2.09D+00  1.04D+00  9.38D-01  1.45D+00
                    CP:  1.22D+00  1.18D+00  1.06D+00
 CoulSu:  requested number of processors reduced to:  21 ShMem   1 Linda.
 E= -115.728222430882     Delta-E=       -0.000000000095 Rises=F Damp=F
 DIIS: error= 1.47D-07 at cycle   9 NSaved=   9.
 NSaved= 9 IEnMin= 9 EnMin= -115.728222430882     IErMin= 9 ErrMin= 1.47D-07
 ErrMax= 1.47D-07  0.00D+00 EMaxC= 1.00D-01 BMatC= 3.62D-12 BMatP= 5.59D-11
 IDIUse=1 WtCom= 1.00D+00 WtEn= 0.00D+00
 Coeff-Com: -0.649D-05 0.155D-04 0.268D-04 0.255D-04-0.111D-04-0.412D-02
 Coeff-Com: -0.311D-01 0.160D+00 0.875D+00
 Coeff:     -0.649D-05 0.155D-04 0.268D-04 0.255D-04-0.111D-04-0.412D-02
 Coeff:     -0.311D-01 0.160D+00 0.875D+00
 Gap=     0.362 Goal=   None    Shift=    0.000
 RMSDP=3.51D-08 MaxDP=1.93D-06 DE=-9.47D-11 OVMax= 9.61D-07

 Cycle  10  Pass 1  IDiag  1:
 RMSU=  8.52D-09    CP:  4.84D-01  2.09D+00  1.04D+00  9.38D-01  1.45D+00
                    CP:  1.22D+00  1.18D+00  1.07D+00  1.13D+00
 CoulSu:  requested number of processors reduced to:  21 ShMem   1 Linda.
 E= -115.728222430885     Delta-E=       -0.000000000003 Rises=F Damp=F
 DIIS: error= 3.52D-08 at cycle  10 NSaved=  10.
 NSaved=10 IEnMin=10 EnMin= -115.728222430885     IErMin=10 ErrMin= 3.52D-08
 ErrMax= 3.52D-08  0.00D+00 EMaxC= 1.00D-01 BMatC= 1.49D-13 BMatP= 3.62D-12
 IDIUse=1 WtCom= 1.00D+00 WtEn= 0.00D+00
 Coeff-Com:  0.185D-05-0.344D-05-0.533D-05-0.685D-05 0.218D-04 0.119D-02
 Coeff-Com:  0.230D-03-0.585D-01-0.130D-01 0.107D+01
 Coeff:      0.185D-05-0.344D-05-0.533D-05-0.685D-05 0.218D-04 0.119D-02
 Coeff:      0.230D-03-0.585D-01-0.130D-01 0.107D+01
 Gap=     0.362 Goal=   None    Shift=    0.000
 RMSDP=6.96D-09 MaxDP=4.49D-07 DE=-2.84D-12 OVMax= 2.74D-07

 SCF Done:  E(RM062X) =  -115.728222431     A.U. after   10 cycles
            NFock= 10  Conv=0.70D-08     -V/T= 2.0038
 KE= 1.152852916442D+02 PE=-3.523061485467D+02 EE= 8.093663500025D+01
 Leave Link  502 at Sat Apr 17 19:35:44 2021, MaxMem=   104857600 cpu:             796.8 elap:              23.2
 (Enter /s/ls4/users/knvvv/bin/g16sse/l601.exe)
 Copying SCF densities to generalized density rwf, IOpCl= 0 IROHF=0.

 **********************************************************************

            Population analysis using the SCF density.

 **********************************************************************

 Orbital symmetries:
       Occupied  (A') (A') (A') (A') (A') (A") (A') (A') (A")
       Virtual   (A') (A') (A') (A") (A') (A') (A") (A') (A") (A')
                 (A') (A') (A') (A") (A') (A") (A') (A") (A') (A')
                 (A") (A') (A') (A") (A') (A") (A') (A') (A") (A')
                 (A') (A") (A") (A') (A') (A') (A") (A') (A') (A")
                 (A') (A') (A') (A") (A') (A") (A') (A") (A") (A')
                 (A') (A") (A') (A') (A') (A") (A') (A") (A') (A')
                 (A') (A') (A") (A') (A') (A') (A") (A") (A') (A')
                 (A") (A') (A") (A") (A') (A") (A') (A') (A') (A")
                 (A') (A") (A') (A") (A') (A") (A') (A') (A') (A")
                 (A') (A") (A') (A") (A') (A') (A") (A') (A") (A')
                 (A") (A') (A') (A") (A") (A') (A') (A") (A') (A')
                 (A') (A") (A') (A") (A') (A') (A") (A') (A') (A')
                 (A") (A") (A') (A") (A') (A') (A") (A') (A") (A')
                 (A') (A") (A') (A") (A') (A') (A') (A") (A") (A')
                 (A') (A") (A') (A") (A') (A") (A') (A") (A') (A")
                 (A') (A") (A') (A") (A') (A") (A') (A") (A') (A')
                 (A') (A") (A') (A') (A") (A') (A") (A') (A") (A')
                 (A') (A") (A') (A") (A') (A") (A') (A") (A') (A')
                 (A") (A') (A') (A") (A') (A") (A') (A") (A') (A")
                 (A') (A") (A') (A') (A") (A') (A') (A") (A') (A")
                 (A") (A') (A') (A') (A') (A") (A') (A") (A") (A')
                 (A") (A') (A') (A") (A') (A') (A") (A') (A') (A")
                 (A') (A") (A') (A") (A') (A") (A') (A") (A') (A")
                 (A') (A") (A') (A') (A") (A") (A') (A') (A") (A')
                 (A") (A') (A') (A') (A") (A') (A') (A') (A') (A')
                 (A') (A')
 The electronic state is 1-A'.
 Alpha  occ. eigenvalues --  -19.62548 -10.58097  -1.14382  -0.77749  -0.58716
 Alpha  occ. eigenvalues --   -0.51801  -0.50021  -0.41254  -0.35688
 Alpha virt. eigenvalues --    0.00515   0.03240   0.05070   0.05318   0.08775
 Alpha virt. eigenvalues --    0.11399   0.11671   0.13431   0.13711   0.16774
 Alpha virt. eigenvalues --    0.18855   0.19851   0.21853   0.21940   0.22886
 Alpha virt. eigenvalues --    0.23052   0.25644   0.25842   0.25912   0.27993
 Alpha virt. eigenvalues --    0.28639   0.31021   0.31415   0.31703   0.33042
 Alpha virt. eigenvalues --    0.34203   0.35801   0.36470   0.36944   0.40418
 Alpha virt. eigenvalues --    0.45458   0.46284   0.47917   0.49449   0.51980
 Alpha virt. eigenvalues --    0.53741   0.55175   0.55345   0.57107   0.62356
 Alpha virt. eigenvalues --    0.63180   0.68524   0.69404   0.70923   0.74367
 Alpha virt. eigenvalues --    0.79325   0.80432   0.83564   0.85924   0.87590
 Alpha virt. eigenvalues --    0.90131   0.91626   0.94373   0.99120   1.08251
 Alpha virt. eigenvalues --    1.09329   1.11460   1.12333   1.17326   1.19677
 Alpha virt. eigenvalues --    1.20428   1.22698   1.25858   1.33979   1.37802
 Alpha virt. eigenvalues --    1.44226   1.46281   1.48214   1.48620   1.59790
 Alpha virt. eigenvalues --    1.61431   1.62550   1.81464   1.89297   1.89824
 Alpha virt. eigenvalues --    1.93115   1.93870   1.95767   1.98298   2.00944
 Alpha virt. eigenvalues --    2.01901   2.02654   2.10102   2.17550   2.17853
 Alpha virt. eigenvalues --    2.18901   2.22287   2.25527   2.33007   2.34516
 Alpha virt. eigenvalues --    2.39277   2.42925   2.50432   2.55178   2.57750
 Alpha virt. eigenvalues --    2.61189   2.62820   2.65004   2.68426   2.71878
 Alpha virt. eigenvalues --    2.78820   2.81664   2.88125   2.91398   2.93768
 Alpha virt. eigenvalues --    2.94249   2.95548   2.97031   3.04006   3.10534
 Alpha virt. eigenvalues --    3.12507   3.20318   3.23678   3.32309   3.33655
 Alpha virt. eigenvalues --    3.37928   3.38574   3.52036   3.59679   3.62827
 Alpha virt. eigenvalues --    3.82178   3.83675   3.85760   3.92626   3.94666
 Alpha virt. eigenvalues --    3.98599   4.06875   4.17500   4.18670   4.22710
 Alpha virt. eigenvalues --    4.30029   4.44766   4.50773   4.55179   4.58942
 Alpha virt. eigenvalues --    4.77039   5.18445   5.23271   5.35002   5.35026
 Alpha virt. eigenvalues --    5.41175   5.44262   5.52561   5.53320   5.65843
 Alpha virt. eigenvalues --    5.66186   5.69930   5.70332   5.74081   5.79191
 Alpha virt. eigenvalues --    5.82486   5.96614   5.97175   6.02076   6.06467
 Alpha virt. eigenvalues --    6.09133   6.14117   6.16130   6.17691   6.26187
 Alpha virt. eigenvalues --    6.29094   6.31969   6.43954   6.51173   6.54220
 Alpha virt. eigenvalues --    6.58952   6.67453   6.71181   6.73354   6.83517
 Alpha virt. eigenvalues --    6.90524   6.91060   7.20458   7.21223   7.23456
 Alpha virt. eigenvalues --    7.27794   7.28290   7.30248   7.32685   7.41575
 Alpha virt. eigenvalues --    7.43131   7.46113   7.49427   7.49602   7.53599
 Alpha virt. eigenvalues --    7.54269   7.65466   7.66224   7.66957   7.75506
 Alpha virt. eigenvalues --    7.83477   7.88635   7.96529   8.02822   8.11662
 Alpha virt. eigenvalues --    8.11680   8.15758   8.17220   8.22825   8.23072
 Alpha virt. eigenvalues --    8.25208   8.25840   8.34691   8.43264   8.52060
 Alpha virt. eigenvalues --    8.52647   8.59270   8.62188   8.70302   8.71897
 Alpha virt. eigenvalues --    8.73533   8.82024   8.90842   9.23242   9.33853
 Alpha virt. eigenvalues --    9.50321   9.53038   9.58942   9.62710   9.63122
 Alpha virt. eigenvalues --    9.79975   9.85016   9.86484   9.92638  10.07078
 Alpha virt. eigenvalues --   10.17562  10.28205  10.35547  10.67683  10.83421
 Alpha virt. eigenvalues --   11.15472  11.27326  11.32734  11.52167  11.61273
 Alpha virt. eigenvalues --   11.70430  11.73648  11.81196  11.89332  12.16454
 Alpha virt. eigenvalues --   12.44605  12.54731  12.94141  13.13353  13.72155
 Alpha virt. eigenvalues --   13.92935  14.28472  16.53340  28.98415  48.34976
 Alpha virt. eigenvalues --  146.44249 251.43332
          Condensed to atoms (all electrons):
               1          2          3          4          5          6
     1  C    5.102894   0.365162   0.326959   0.326959   0.276137  -0.024908
     2  H    0.365162   0.807918  -0.150707  -0.150707  -0.047994   0.026428
     3  H    0.326959  -0.150707   0.901716  -0.170391  -0.081946  -0.023797
     4  H    0.326959  -0.150707  -0.170391   0.901716  -0.081946  -0.023797
     5  O    0.276137  -0.047994  -0.081946  -0.081946   8.287191   0.215211
     6  H   -0.024908   0.026428  -0.023797  -0.023797   0.215211   0.437235
 Mulliken charges:
               1
     1  C   -0.373204
     2  H    0.149902
     3  H    0.198165
     4  H    0.198165
     5  O   -0.566654
     6  H    0.393626
 Sum of Mulliken charges =  -0.00000
 Mulliken charges with hydrogens summed into heavy atoms:
               1
     1  C    0.173028
     5  O   -0.173028
 Electronic spatial extent (au):  <R**2>=             84.5096
 Charge=             -0.0000 electrons
 Dipole moment (field-independent basis, Debye):
    X=              1.3791    Y=              0.9908    Z=             -0.0000  Tot=              1.6981
 Quadrupole moment (field-independent basis, Debye-Ang):
   XX=            -11.8083   YY=            -13.5310   ZZ=            -13.8370
   XY=             -2.0909   XZ=             -0.0000   YZ=             -0.0000
 Traceless Quadrupole moment (field-independent basis, Debye-Ang):
   XX=              1.2504   YY=             -0.4722   ZZ=             -0.7782
   XY=             -2.0909   XZ=             -0.0000   YZ=             -0.0000
 Octapole moment (field-independent basis, Debye-Ang**2):
  XXX=              1.0485  YYY=             -3.6550  ZZZ=             -0.0000  XYY=              2.3007
  XXY=             -2.1407  XXZ=              0.0000  XZZ=              0.7065  YZZ=             -0.1220
  YYZ=             -0.0000  XYZ=             -0.0000
 Hexadecapole moment (field-independent basis, Debye-Ang**3):
 XXXX=            -19.6298 YYYY=            -64.3599 ZZZZ=            -20.4441 XXXY=             -1.2955
 XXXZ=             -0.0000 YYYX=             -1.3998 YYYZ=             -0.0000 ZZZX=              0.0000
 ZZZY=             -0.0000 XXYY=            -12.7379 XXZZ=             -7.1026 YYZZ=            -14.6429
 XXYZ=              0.0000 YYXZ=             -0.0000 ZZXY=              0.9810
 N-N= 4.035599947133D+01 E-N=-3.523061489589D+02  KE= 1.152852916442D+02
 PrsmSu:  requested number of processors reduced to:  21 ShMem   1 Linda.
 No NMR shielding tensors so no spin-rotation constants.
 Leave Link  601 at Sat Apr 17 19:35:47 2021, MaxMem=   104857600 cpu:             114.7 elap:               2.6
 (Enter /s/ls4/users/knvvv/bin/g16sse/l801.exe)
 DoSCS=F DFT=T ScalE2(SS,OS)=  1.000000  1.000000
 Range of M.O.s used for correlation:     1   261
 NBasis=   261 NAE=     9 NBE=     9 NFC=     0 NFV=     0
 NROrb=    261 NOA=     9 NOB=     9 NVA=   252 NVB=   252

 **** Warning!!: The largest alpha MO coefficient is  0.24128906D+03

 Leave Link  801 at Sat Apr 17 19:35:47 2021, MaxMem=   104857600 cpu:               3.5 elap:               0.1
 (Enter /s/ls4/users/knvvv/bin/g16sse/l914.exe)
 RHF ground state
 Doing stability rather than CIS.
 Two-electron integrals replicated using symmetry.
 MDV=   104857600 DFT=T DoStab=T Mixed=T DoRPA=F DoScal=F NonHer=F
 Making orbital integer symmetry assigments:
 Orbital symmetries:
       Occupied  (A') (A') (A') (A') (A') (A") (A') (A') (A")
       Virtual   (A') (A') (A') (A") (A') (A') (A") (A') (A") (A')
                 (A') (A') (A') (A") (A') (A") (A') (A") (A') (A')
                 (A") (A') (A') (A") (A') (A") (A') (A') (A") (A')
                 (A') (A") (A") (A') (A') (A') (A") (A') (A') (A")
                 (A') (A') (A') (A") (A') (A") (A') (A") (A") (A')
                 (A') (A") (A') (A') (A') (A") (A') (A") (A') (A')
                 (A') (A') (A") (A') (A') (A') (A") (A") (A') (A')
                 (A") (A') (A") (A") (A') (A") (A') (A') (A') (A")
                 (A') (A") (A') (A") (A') (A") (A') (A') (A') (A")
                 (A') (A") (A') (A") (A') (A') (A") (A') (A") (A')
                 (A") (A') (A') (A") (A") (A') (A') (A") (A') (A')
                 (A') (A") (A') (A") (A') (A') (A") (A') (A') (A')
                 (A") (A") (A') (A") (A') (A') (A") (A') (A") (A')
                 (A') (A") (A') (A") (A') (A') (A') (A") (A") (A')
                 (A') (A") (A') (A") (A') (A") (A') (A") (A') (A")
                 (A') (A") (A') (A") (A') (A") (A') (A") (A') (A')
                 (A') (A") (A') (A') (A") (A') (A") (A') (A") (A')
                 (A') (A") (A') (A") (A') (A") (A') (A") (A') (A')
                 (A") (A') (A') (A") (A') (A") (A') (A") (A') (A")
                 (A') (A") (A') (A') (A") (A') (A') (A") (A') (A")
                 (A") (A') (A') (A') (A') (A") (A') (A") (A") (A')
                 (A") (A') (A') (A") (A') (A') (A") (A') (A') (A")
                 (A') (A") (A') (A") (A') (A") (A') (A") (A') (A")
                 (A') (A") (A') (A') (A") (A") (A') (A') (A") (A')
                 (A") (A') (A') (A') (A") (A') (A') (A') (A') (A')
                 (A') (A')
    24 initial guesses have been made.
 Convergence on wavefunction:    0.001000000000000
 Davidson Disk Diagonalization:  ConvIn= 1.00D-03 SkipCon=T Conv= 1.00D-03.
 Max sub-space:  2000 roots to seek:    24 dimension of matrix:         4536
 Iteration     1 Dimension    24 NMult     0 NNew     24
 Estimated number of processors is:   19
 CISAX will form     1 AO SS matrices at one time.
 NMat=     1 NSing=     1 JSym2X= 2.
 FoFJK:  IHMeth= 1 ICntrl=       0 DoSepK=F KAlg= 0 I1Cent=           0 FoldK=F
 IRaf= 990000000 NMat=       1 IRICut=       1 DoRegI=T DoRafI=F ISym2E= 2 IDoP0=0 IntGTp=1.
 FoFCou: FMM=F IPFlag=           0 FMFlag=      100000 FMFlg1=           0
         NFxFlg=           0 DoJE=F BraDBF=F KetDBF=F FulRan=T
         wScrn=  0.000000 ICntrl=         0 IOpCl=  0 I1Cent=           0 NGrid=           0
         NMat0=    1 NMatS0=      1 NMatT0=    0 NMatD0=    1 NMtDS0=    0 NMtDT0=    0
 Integrals replicated using symmetry in FoFCou.
 CoulSu:  requested number of processors reduced to:  20 ShMem   1 Linda.
 NMat=     1 NSing=     1 JSym2X= 2.
 CoulSu:  requested number of processors reduced to:  20 ShMem   1 Linda.
 NMat=     1 NSing=     1 JSym2X= 2.
 CoulSu:  requested number of processors reduced to:  20 ShMem   1 Linda.
 NMat=     1 NSing=     1 JSym2X= 2.
 CoulSu:  requested number of processors reduced to:  20 ShMem   1 Linda.
 NMat=     1 NSing=     1 JSym2X= 2.
 CoulSu:  requested number of processors reduced to:  20 ShMem   1 Linda.
 NMat=     1 NSing=     1 JSym2X= 2.
 CoulSu:  requested number of processors reduced to:  20 ShMem   1 Linda.
 NMat=     1 NSing=     1 JSym2X= 2.
 CoulSu:  requested number of processors reduced to:  20 ShMem   1 Linda.
 NMat=     1 NSing=     1 JSym2X= 2.
 CoulSu:  requested number of processors reduced to:  20 ShMem   1 Linda.
 NMat=     1 NSing=     1 JSym2X= 2.
 CoulSu:  requested number of processors reduced to:  20 ShMem   1 Linda.
 NMat=     1 NSing=     1 JSym2X= 2.
 CoulSu:  requested number of processors reduced to:  20 ShMem   1 Linda.
 NMat=     1 NSing=     1 JSym2X= 2.
 CoulSu:  requested number of processors reduced to:  20 ShMem   1 Linda.
 NMat=     1 NSing=     1 JSym2X= 2.
 CoulSu:  requested number of processors reduced to:  20 ShMem   1 Linda.
 NMat=     1 NSing=     0 JSym2X= 2.
 CoulSu:  requested number of processors reduced to:  20 ShMem   1 Linda.
 NMat=     1 NSing=     0 JSym2X= 2.
 CoulSu:  requested number of processors reduced to:  20 ShMem   1 Linda.
 NMat=     1 NSing=     0 JSym2X= 2.
 CoulSu:  requested number of processors reduced to:  20 ShMem   1 Linda.
 NMat=     1 NSing=     0 JSym2X= 2.
 CoulSu:  requested number of processors reduced to:  20 ShMem   1 Linda.
 NMat=     1 NSing=     0 JSym2X= 2.
 CoulSu:  requested number of processors reduced to:  20 ShMem   1 Linda.
 NMat=     1 NSing=     0 JSym2X= 2.
 CoulSu:  requested number of processors reduced to:  20 ShMem   1 Linda.
 NMat=     1 NSing=     0 JSym2X= 2.
 CoulSu:  requested number of processors reduced to:  20 ShMem   1 Linda.
 NMat=     1 NSing=     0 JSym2X= 2.
 CoulSu:  requested number of processors reduced to:  20 ShMem   1 Linda.
 NMat=     1 NSing=     0 JSym2X= 2.
 CoulSu:  requested number of processors reduced to:  20 ShMem   1 Linda.
 NMat=     1 NSing=     0 JSym2X= 2.
 CoulSu:  requested number of processors reduced to:  20 ShMem   1 Linda.
 NMat=     1 NSing=     0 JSym2X= 2.
 CoulSu:  requested number of processors reduced to:  20 ShMem   1 Linda.
 NMat=     1 NSing=     0 JSym2X= 2.
 CoulSu:  requested number of processors reduced to:  20 ShMem   1 Linda.
 New state      1 was old state      2
 Excitation Energies [eV] at current iteration:
 Root      1 :     7.079191251781731
 Root      2 :     7.236813922847747
 Root      3 :     8.200356213089560
 Root      4 :     8.312504167258060
 Root      5 :     8.735920456136565
 Root      6 :     8.811685327951682
 Root      7 :     8.814743501877940
 Root      8 :     8.838818480842530
 Root      9 :     8.935275130015381
 Root     10 :     9.087005924378557
 Root     11 :     9.470409160156590
 Root     12 :     9.624813539692168
 Root     13 :     9.641636476087426
 Root     14 :     9.886533000360908
 Root     15 :    10.175292692570260
 Root     16 :    10.248281116046240
 Root     17 :    10.287065083131960
 Root     18 :    10.343697518732420
 Root     19 :    10.377829316705930
 Root     20 :    10.385393981283140
 Root     21 :    10.553453482804280
 Root     22 :    10.885875499130790
 Root     23 :    10.919141189625760
 Root     24 :    11.040710337782730
 Iteration     2 Dimension    48 NMult    24 NNew     24
 Estimated number of processors is:   19
 CISAX will form     1 AO SS matrices at one time.
 NMat=     1 NSing=     1 JSym2X= 2.
 CoulSu:  requested number of processors reduced to:  20 ShMem   1 Linda.
 NMat=     1 NSing=     1 JSym2X= 2.
 CoulSu:  requested number of processors reduced to:  20 ShMem   1 Linda.
 NMat=     1 NSing=     1 JSym2X= 2.
 CoulSu:  requested number of processors reduced to:  20 ShMem   1 Linda.
 NMat=     1 NSing=     1 JSym2X= 2.
 CoulSu:  requested number of processors reduced to:  20 ShMem   1 Linda.
 NMat=     1 NSing=     1 JSym2X= 2.
 CoulSu:  requested number of processors reduced to:  20 ShMem   1 Linda.
 NMat=     1 NSing=     1 JSym2X= 2.
 CoulSu:  requested number of processors reduced to:  20 ShMem   1 Linda.
 NMat=     1 NSing=     1 JSym2X= 2.
 CoulSu:  requested number of processors reduced to:  20 ShMem   1 Linda.
 NMat=     1 NSing=     1 JSym2X= 2.
 CoulSu:  requested number of processors reduced to:  20 ShMem   1 Linda.
 NMat=     1 NSing=     1 JSym2X= 2.
 CoulSu:  requested number of processors reduced to:  20 ShMem   1 Linda.
 NMat=     1 NSing=     1 JSym2X= 2.
 CoulSu:  requested number of processors reduced to:  20 ShMem   1 Linda.
 NMat=     1 NSing=     1 JSym2X= 2.
 CoulSu:  requested number of processors reduced to:  20 ShMem   1 Linda.
 NMat=     1 NSing=     1 JSym2X= 2.
 CoulSu:  requested number of processors reduced to:  20 ShMem   1 Linda.
 NMat=     1 NSing=     0 JSym2X= 2.
 CoulSu:  requested number of processors reduced to:  20 ShMem   1 Linda.
 NMat=     1 NSing=     0 JSym2X= 2.
 CoulSu:  requested number of processors reduced to:  20 ShMem   1 Linda.
 NMat=     1 NSing=     0 JSym2X= 2.
 CoulSu:  requested number of processors reduced to:  20 ShMem   1 Linda.
 NMat=     1 NSing=     0 JSym2X= 2.
 CoulSu:  requested number of processors reduced to:  20 ShMem   1 Linda.
 NMat=     1 NSing=     0 JSym2X= 2.
 CoulSu:  requested number of processors reduced to:  20 ShMem   1 Linda.
 NMat=     1 NSing=     0 JSym2X= 2.
 CoulSu:  requested number of processors reduced to:  20 ShMem   1 Linda.
 NMat=     1 NSing=     0 JSym2X= 2.
 CoulSu:  requested number of processors reduced to:  20 ShMem   1 Linda.
 NMat=     1 NSing=     0 JSym2X= 2.
 CoulSu:  requested number of processors reduced to:  20 ShMem   1 Linda.
 NMat=     1 NSing=     0 JSym2X= 2.
 CoulSu:  requested number of processors reduced to:  20 ShMem   1 Linda.
 NMat=     1 NSing=     0 JSym2X= 2.
 CoulSu:  requested number of processors reduced to:  20 ShMem   1 Linda.
 NMat=     1 NSing=     0 JSym2X= 2.
 CoulSu:  requested number of processors reduced to:  20 ShMem   1 Linda.
 NMat=     1 NSing=     0 JSym2X= 2.
 CoulSu:  requested number of processors reduced to:  20 ShMem   1 Linda.
 Root      1 not converged, maximum delta is    0.110000440565049
 Excitation Energies [eV] at current iteration:
 Root      1 :     6.599003978519749   Change is   -0.480187273261982
 Root      2 :     7.042614073772000   Change is   -0.194199849075747
 Root      3 :     7.875749851267419   Change is   -0.324606361822140
 Root      4 :     8.162643792911870   Change is   -0.149860374346191
 Root      5 :     8.274002152827068   Change is   -0.537683175124616
 Root      6 :     8.539685271178392   Change is   -0.196235184958174
 Root      7 :     8.645329512477591   Change is   -0.193488968364940
 Root      8 :     8.690132689417910   Change is   -0.124610812460030
 Root      9 :     8.716089099186238   Change is   -0.219186030829144
 Root     10 :     8.892768362713769   Change is   -0.194237561664788
 Root     11 :     9.164130306430918   Change is   -0.306278853725673
 Root     12 :     9.232890323700317   Change is   -0.408746152387109
 Root     13 :     9.434708036296763   Change is   -0.190105503395405
 Root     14 :     9.687425375313639   Change is   -0.199107625047268
 Root     15 :     9.761672452201090   Change is   -0.413620240369174
 Root     16 :     9.841049096752727   Change is   -0.536780219953209
 Root     17 :    10.051295796153800   Change is   -0.196985319892437
 Root     18 :    10.083949520476740   Change is   -0.203115562655218
 Root     19 :    10.204724281633160   Change is   -0.138973237099253
 Root     20 :    10.266863831905740   Change is   -0.118530149377402
 Root     21 :    10.344491747140810   Change is   -0.208961735663468
 Root     22 :    10.577619619812980   Change is   -0.463090717969750
 Root     23 :    10.753765681312420   Change is   -0.165375508313341
 Root     24 :    10.763910017831350   Change is   -0.121965481299442
 Iteration     3 Dimension    54 NMult    48 NNew      6
 Estimated number of processors is:   19
 CISAX will form     1 AO SS matrices at one time.
 NMat=     1 NSing=     1 JSym2X= 2.
 CoulSu:  requested number of processors reduced to:  20 ShMem   1 Linda.
 NMat=     1 NSing=     1 JSym2X= 2.
 CoulSu:  requested number of processors reduced to:  20 ShMem   1 Linda.
 NMat=     1 NSing=     1 JSym2X= 2.
 CoulSu:  requested number of processors reduced to:  20 ShMem   1 Linda.
 NMat=     1 NSing=     0 JSym2X= 2.
 CoulSu:  requested number of processors reduced to:  20 ShMem   1 Linda.
 NMat=     1 NSing=     0 JSym2X= 2.
 CoulSu:  requested number of processors reduced to:  20 ShMem   1 Linda.
 NMat=     1 NSing=     0 JSym2X= 2.
 CoulSu:  requested number of processors reduced to:  20 ShMem   1 Linda.
 Root      1 not converged, maximum delta is    0.011327548471708
 Excitation Energies [eV] at current iteration:
 Root      1 :     6.572593723461658   Change is   -0.026410255058091
 Root      2 :     7.030374811105453   Change is   -0.012239262666547
 Root      3 :     7.837315598113626   Change is   -0.038434253153793
 Root      4 :     8.151000620294129   Change is   -0.011643172617741
 Root      5 :     8.199671166449546   Change is   -0.074330986377521
 Root      6 :     8.679819496933048   Change is   -0.010313192484863
 Iteration     4 Dimension    60 NMult    54 NNew      6
 Estimated number of processors is:   19
 CISAX will form     1 AO SS matrices at one time.
 NMat=     1 NSing=     1 JSym2X= 2.
 CoulSu:  requested number of processors reduced to:  20 ShMem   1 Linda.
 NMat=     1 NSing=     1 JSym2X= 2.
 CoulSu:  requested number of processors reduced to:  20 ShMem   1 Linda.
 NMat=     1 NSing=     1 JSym2X= 2.
 CoulSu:  requested number of processors reduced to:  20 ShMem   1 Linda.
 NMat=     1 NSing=     0 JSym2X= 2.
 CoulSu:  requested number of processors reduced to:  20 ShMem   1 Linda.
 NMat=     1 NSing=     0 JSym2X= 2.
 CoulSu:  requested number of processors reduced to:  20 ShMem   1 Linda.
 NMat=     1 NSing=     0 JSym2X= 2.
 CoulSu:  requested number of processors reduced to:  20 ShMem   1 Linda.
 Root      1 not converged, maximum delta is    0.004130020410286
 Excitation Energies [eV] at current iteration:
 Root      1 :     6.571342178207155   Change is   -0.001251545254503
 Root      2 :     7.030085219129863   Change is   -0.000289591975590
 Root      3 :     7.834243080731996   Change is   -0.003072517381629
 Root      4 :     8.150170952654081   Change is   -0.000829667640048
 Root      5 :     8.190016092930057   Change is   -0.009655073519489
 Root      6 :     8.678556119350899   Change is   -0.001263377582147
 Iteration     5 Dimension    66 NMult    60 NNew      6
 Estimated number of processors is:   19
 CISAX will form     1 AO SS matrices at one time.
 NMat=     1 NSing=     1 JSym2X= 2.
 CoulSu:  requested number of processors reduced to:  20 ShMem   1 Linda.
 NMat=     1 NSing=     1 JSym2X= 2.
 CoulSu:  requested number of processors reduced to:  20 ShMem   1 Linda.
 NMat=     1 NSing=     1 JSym2X= 2.
 CoulSu:  requested number of processors reduced to:  20 ShMem   1 Linda.
 NMat=     1 NSing=     0 JSym2X= 2.
 CoulSu:  requested number of processors reduced to:  20 ShMem   1 Linda.
 NMat=     1 NSing=     0 JSym2X= 2.
 CoulSu:  requested number of processors reduced to:  20 ShMem   1 Linda.
 NMat=     1 NSing=     0 JSym2X= 2.
 CoulSu:  requested number of processors reduced to:  20 ShMem   1 Linda.
 Root      1 has converged.
 Excitation Energies [eV] at current iteration:
 Root      1 :     6.571281487079649   Change is   -0.000060691127506
 Root      2 :     7.030077933821337   Change is   -0.000007285308526
 Root      3 :     7.834017873095044   Change is   -0.000225207636952
 Root      4 :     8.150133948604141   Change is   -0.000037004049939
 Root      5 :     8.189050976112238   Change is   -0.000965116817818
 Root      6 :     8.678483754128136   Change is   -0.000072365222763
 Convergence achieved on expansion vectors.
 ***********************************************************************
 Stability analysis using <AA,BB:AA,BB> singles matrix:
 ***********************************************************************
 1PDM for each excited state written to RWF  633
 Ground to excited state transition densities written to RWF  633

 Eigenvectors of the stability matrix:
 
 Eigenvector   1:      Triplet-A"   Eigenvalue= 0.2414902  <S**2>=2.000
       9 -> 10         0.57530
       9 -> 11         0.27927
       9 -> 14        -0.19742
       9 -> 19        -0.11878
       9 -> 24        -0.10108
 The wavefunction is stable under the perturbations considered.
 Leave Link  914 at Sat Apr 17 19:41:28 2021, MaxMem=   104857600 cpu:           13541.9 elap:             341.1
 (Enter /s/ls4/users/knvvv/bin/g16sse/l508.exe)
 The wavefunction is already stable.
 Leave Link  508 at Sat Apr 17 19:41:28 2021, MaxMem=   104857600 cpu:               2.2 elap:               0.1
 (Enter /s/ls4/users/knvvv/bin/g16sse/l601.exe)
 Copying SCF densities to generalized density rwf, IOpCl= 0 IROHF=0.

 **********************************************************************

            Population analysis using the SCF density.

 **********************************************************************

 Orbital symmetries:
       Occupied  (A') (A') (A') (A') (A') (A") (A') (A') (A")
       Virtual   (A') (A') (A') (A") (A') (A') (A") (A') (A") (A')
                 (A') (A') (A') (A") (A') (A") (A') (A") (A') (A')
                 (A") (A') (A') (A") (A') (A") (A') (A') (A") (A')
                 (A') (A") (A") (A') (A') (A') (A") (A') (A') (A")
                 (A') (A') (A') (A") (A') (A") (A') (A") (A") (A')
                 (A') (A") (A') (A') (A') (A") (A') (A") (A') (A')
                 (A') (A') (A") (A') (A') (A') (A") (A") (A') (A')
                 (A") (A') (A") (A") (A') (A") (A') (A') (A') (A")
                 (A') (A") (A') (A") (A') (A") (A') (A') (A') (A")
                 (A') (A") (A') (A") (A') (A') (A") (A') (A") (A')
                 (A") (A') (A') (A") (A") (A') (A') (A") (A') (A')
                 (A') (A") (A') (A") (A') (A') (A") (A') (A') (A')
                 (A") (A") (A') (A") (A') (A') (A") (A') (A") (A')
                 (A') (A") (A') (A") (A') (A') (A') (A") (A") (A')
                 (A') (A") (A') (A") (A') (A") (A') (A") (A') (A")
                 (A') (A") (A') (A") (A') (A") (A') (A") (A') (A')
                 (A') (A") (A') (A') (A") (A') (A") (A') (A") (A')
                 (A') (A") (A') (A") (A') (A") (A') (A") (A') (A')
                 (A") (A') (A') (A") (A') (A") (A') (A") (A') (A")
                 (A') (A") (A') (A') (A") (A') (A') (A") (A') (A")
                 (A") (A') (A') (A') (A') (A") (A') (A") (A") (A')
                 (A") (A') (A') (A") (A') (A') (A") (A') (A') (A")
                 (A') (A") (A') (A") (A') (A") (A') (A") (A') (A")
                 (A') (A") (A') (A') (A") (A") (A') (A') (A") (A')
                 (A") (A') (A') (A') (A") (A') (A') (A') (A') (A')
                 (A') (A')
 The electronic state is 1-A'.
 Alpha  occ. eigenvalues --  -19.62548 -10.58097  -1.14382  -0.77749  -0.58716
 Alpha  occ. eigenvalues --   -0.51801  -0.50021  -0.41254  -0.35688
 Alpha virt. eigenvalues --    0.00515   0.03240   0.05070   0.05318   0.08775
 Alpha virt. eigenvalues --    0.11399   0.11671   0.13431   0.13711   0.16774
 Alpha virt. eigenvalues --    0.18855   0.19851   0.21853   0.21940   0.22886
 Alpha virt. eigenvalues --    0.23052   0.25644   0.25842   0.25912   0.27993
 Alpha virt. eigenvalues --    0.28639   0.31021   0.31415   0.31703   0.33042
 Alpha virt. eigenvalues --    0.34203   0.35801   0.36470   0.36944   0.40418
 Alpha virt. eigenvalues --    0.45458   0.46284   0.47917   0.49449   0.51980
 Alpha virt. eigenvalues --    0.53741   0.55175   0.55345   0.57107   0.62356
 Alpha virt. eigenvalues --    0.63180   0.68524   0.69404   0.70923   0.74367
 Alpha virt. eigenvalues --    0.79325   0.80432   0.83564   0.85924   0.87590
 Alpha virt. eigenvalues --    0.90131   0.91626   0.94373   0.99120   1.08251
 Alpha virt. eigenvalues --    1.09329   1.11460   1.12333   1.17326   1.19677
 Alpha virt. eigenvalues --    1.20428   1.22698   1.25858   1.33979   1.37802
 Alpha virt. eigenvalues --    1.44226   1.46281   1.48214   1.48620   1.59790
 Alpha virt. eigenvalues --    1.61431   1.62550   1.81464   1.89297   1.89824
 Alpha virt. eigenvalues --    1.93115   1.93870   1.95767   1.98298   2.00944
 Alpha virt. eigenvalues --    2.01901   2.02654   2.10102   2.17550   2.17853
 Alpha virt. eigenvalues --    2.18901   2.22287   2.25527   2.33007   2.34516
 Alpha virt. eigenvalues --    2.39277   2.42925   2.50432   2.55178   2.57750
 Alpha virt. eigenvalues --    2.61189   2.62820   2.65004   2.68426   2.71878
 Alpha virt. eigenvalues --    2.78820   2.81664   2.88125   2.91398   2.93768
 Alpha virt. eigenvalues --    2.94249   2.95548   2.97031   3.04006   3.10534
 Alpha virt. eigenvalues --    3.12507   3.20318   3.23678   3.32309   3.33655
 Alpha virt. eigenvalues --    3.37928   3.38574   3.52036   3.59679   3.62827
 Alpha virt. eigenvalues --    3.82178   3.83675   3.85760   3.92626   3.94666
 Alpha virt. eigenvalues --    3.98599   4.06875   4.17500   4.18670   4.22710
 Alpha virt. eigenvalues --    4.30029   4.44766   4.50773   4.55179   4.58942
 Alpha virt. eigenvalues --    4.77039   5.18445   5.23271   5.35002   5.35026
 Alpha virt. eigenvalues --    5.41175   5.44262   5.52561   5.53320   5.65843
 Alpha virt. eigenvalues --    5.66186   5.69930   5.70332   5.74081   5.79191
 Alpha virt. eigenvalues --    5.82486   5.96614   5.97175   6.02076   6.06467
 Alpha virt. eigenvalues --    6.09133   6.14117   6.16130   6.17691   6.26187
 Alpha virt. eigenvalues --    6.29094   6.31969   6.43954   6.51173   6.54220
 Alpha virt. eigenvalues --    6.58952   6.67453   6.71181   6.73354   6.83517
 Alpha virt. eigenvalues --    6.90524   6.91060   7.20458   7.21223   7.23456
 Alpha virt. eigenvalues --    7.27794   7.28290   7.30248   7.32685   7.41575
 Alpha virt. eigenvalues --    7.43131   7.46113   7.49427   7.49602   7.53599
 Alpha virt. eigenvalues --    7.54269   7.65466   7.66224   7.66957   7.75506
 Alpha virt. eigenvalues --    7.83477   7.88635   7.96529   8.02822   8.11662
 Alpha virt. eigenvalues --    8.11680   8.15758   8.17220   8.22825   8.23072
 Alpha virt. eigenvalues --    8.25208   8.25840   8.34691   8.43264   8.52060
 Alpha virt. eigenvalues --    8.52647   8.59270   8.62188   8.70302   8.71897
 Alpha virt. eigenvalues --    8.73533   8.82024   8.90842   9.23242   9.33853
 Alpha virt. eigenvalues --    9.50321   9.53038   9.58942   9.62710   9.63122
 Alpha virt. eigenvalues --    9.79975   9.85016   9.86484   9.92638  10.07078
 Alpha virt. eigenvalues --   10.17562  10.28205  10.35547  10.67683  10.83421
 Alpha virt. eigenvalues --   11.15472  11.27326  11.32734  11.52167  11.61273
 Alpha virt. eigenvalues --   11.70430  11.73648  11.81196  11.89332  12.16454
 Alpha virt. eigenvalues --   12.44605  12.54731  12.94141  13.13353  13.72155
 Alpha virt. eigenvalues --   13.92935  14.28472  16.53340  28.98415  48.34976
 Alpha virt. eigenvalues --  146.44249 251.43332
          Condensed to atoms (all electrons):
               1          2          3          4          5          6
     1  C    5.102894   0.365162   0.326959   0.326959   0.276137  -0.024908
     2  H    0.365162   0.807918  -0.150707  -0.150707  -0.047994   0.026428
     3  H    0.326959  -0.150707   0.901716  -0.170391  -0.081946  -0.023797
     4  H    0.326959  -0.150707  -0.170391   0.901716  -0.081946  -0.023797
     5  O    0.276137  -0.047994  -0.081946  -0.081946   8.287191   0.215211
     6  H   -0.024908   0.026428  -0.023797  -0.023797   0.215211   0.437235
 Mulliken charges:
               1
     1  C   -0.373204
     2  H    0.149902
     3  H    0.198165
     4  H    0.198165
     5  O   -0.566654
     6  H    0.393626
 Sum of Mulliken charges =  -0.00000
 Mulliken charges with hydrogens summed into heavy atoms:
               1
     1  C    0.173028
     5  O   -0.173028
 Electronic spatial extent (au):  <R**2>=             84.5096
 Charge=             -0.0000 electrons
 Dipole moment (field-independent basis, Debye):
    X=              1.3791    Y=              0.9908    Z=             -0.0000  Tot=              1.6981
 Quadrupole moment (field-independent basis, Debye-Ang):
   XX=            -11.8083   YY=            -13.5310   ZZ=            -13.8370
   XY=             -2.0909   XZ=             -0.0000   YZ=             -0.0000
 Traceless Quadrupole moment (field-independent basis, Debye-Ang):
   XX=              1.2504   YY=             -0.4722   ZZ=             -0.7782
   XY=             -2.0909   XZ=             -0.0000   YZ=             -0.0000
 Octapole moment (field-independent basis, Debye-Ang**2):
  XXX=              1.0485  YYY=             -3.6550  ZZZ=             -0.0000  XYY=              2.3007
  XXY=             -2.1407  XXZ=              0.0000  XZZ=              0.7065  YZZ=             -0.1220
  YYZ=             -0.0000  XYZ=             -0.0000
 Hexadecapole moment (field-independent basis, Debye-Ang**3):
 XXXX=            -19.6298 YYYY=            -64.3599 ZZZZ=            -20.4441 XXXY=             -1.2955
 XXXZ=             -0.0000 YYYX=             -1.3998 YYYZ=             -0.0000 ZZZX=              0.0000
 ZZZY=             -0.0000 XXYY=            -12.7379 XXZZ=             -7.1026 YYZZ=            -14.6429
 XXYZ=              0.0000 YYXZ=             -0.0000 ZZXY=              0.9810
 N-N= 4.035599947133D+01 E-N=-3.523061489589D+02  KE= 1.152852916442D+02
 PrsmSu:  requested number of processors reduced to:  21 ShMem   1 Linda.
 No NMR shielding tensors so no spin-rotation constants.
 Leave Link  601 at Sat Apr 17 19:41:31 2021, MaxMem=   104857600 cpu:             127.7 elap:               2.9
 (Enter /s/ls4/users/knvvv/bin/g16sse/l9999.exe)

 Test job not archived.
 1\1\GINC-N148\Stability\RM062X\Gen\C1H4O1\KNVVV\17-Apr-2021\0\\#P M062
 X/GEN Integral=UltraFineGrid SCF=NoSymm Stable=(RExt, Opt) IOp(1/33=1)
 \\Database calculations.\\0,1\C,0,-0.0479167327,0.6682939561,0.\H,0,-1
 .0907101856,0.9776732069,0.\H,0,0.4344161461,1.0815239129,0.8898543791
 \H,0,0.4344161461,1.0815239129,-0.8898543791\O,0,-0.0410920225,-0.7509
 554452,0.\H,0,0.8712936485,-1.0420305436,0.\\Version=ES64L-G16RevA.03\
 State=1-A'\HF=-115.7282224\RMSD=6.956e-09\Dipole=0.5407133,0.3924002,0
 .\Quadrupole=0.9445945,-0.3660152,-0.5785793,-1.5482998,0.,0.\PG=CS [S
 G(C1H2O1),X(H2)]\\@


 DIATOMIC MOLECULES ARE PECULIAR BECAUSE THEY ONLY HAVE TWO ENDS,
 AND THESE ENDS ARE VERY CLOSE TOGETHER.
 KLAUS RUEDENBERG, REV.MOD.PHYS. PG 176, 32, (1960)
 Job cpu time:       0 days  4 hours 11 minutes 36.0 seconds.
 Elapsed time:       0 days  0 hours  6 minutes 21.2 seconds.
 File lengths (MBytes):  RWF=    140 Int=      0 D2E=      0 Chk=      9 Scr=      1
 Normal termination of Gaussian 16 at Sat Apr 17 19:41:31 2021.
