 Entering Gaussian System, Link 0=/s/ls4/users/knvvv/bin/g16sse/g16
 Input=data/database/M062X--def2-QZVPPD--2733_05MeOHMeOH100_dim_S66x8.gjf
 Output=data/database/M062X--def2-QZVPPD--2733_05MeOHMeOH100_dim_S66x8.log
 Initial command:
 /s/ls4/users/knvvv/bin/g16sse/l1.exe "/s/ls4/users/knvvv/bin/scratch/Gau-7831.inp" -scrdir="/s/ls4/users/knvvv/bin/scratch/"
 Entering Link 1 = /s/ls4/users/knvvv/bin/g16sse/l1.exe PID=      7832.
  
 Copyright (c) 1988,1990,1992,1993,1995,1998,2003,2009,2016,
            Gaussian, Inc.  All Rights Reserved.
  
 This is part of the Gaussian(R) 16 program.  It is based on
 the Gaussian(R) 09 system (copyright 2009, Gaussian, Inc.),
 the Gaussian(R) 03 system (copyright 2003, Gaussian, Inc.),
 the Gaussian(R) 98 system (copyright 1998, Gaussian, Inc.),
 the Gaussian(R) 94 system (copyright 1995, Gaussian, Inc.),
 the Gaussian 92(TM) system (copyright 1992, Gaussian, Inc.),
 the Gaussian 90(TM) system (copyright 1990, Gaussian, Inc.),
 the Gaussian 88(TM) system (copyright 1988, Gaussian, Inc.),
 the Gaussian 86(TM) system (copyright 1986, Carnegie Mellon
 University), and the Gaussian 82(TM) system (copyright 1983,
 Carnegie Mellon University). Gaussian is a federally registered
 trademark of Gaussian, Inc.
  
 This software contains proprietary and confidential information,
 including trade secrets, belonging to Gaussian, Inc.
  
 This software is provided under written license and may be
 used, copied, transmitted, or stored only in accord with that
 written license.
  
 The following legend is applicable only to US Government
 contracts under FAR:
  
                    RESTRICTED RIGHTS LEGEND
  
 Use, reproduction and disclosure by the US Government is
 subject to restrictions as set forth in subparagraphs (a)
 and (c) of the Commercial Computer Software - Restricted
 Rights clause in FAR 52.227-19.
  
 Gaussian, Inc.
 340 Quinnipiac St., Bldg. 40, Wallingford CT 06492
  
  
 ---------------------------------------------------------------
 Warning -- This program may not be used in any manner that
 competes with the business of Gaussian, Inc. or will provide
 assistance to any competitor of Gaussian, Inc.  The licensee
 of this program is prohibited from giving any competitor of
 Gaussian, Inc. access to this program.  By using this program,
 the user acknowledges that Gaussian, Inc. is engaged in the
 business of creating and licensing software in the field of
 computational chemistry and represents and warrants to the
 licensee that it is not a competitor of Gaussian, Inc. and that
 it will not use this program in any manner prohibited above.
 ---------------------------------------------------------------
  

 Cite this work as:
 Gaussian 16, Revision A.03,
 M. J. Frisch, G. W. Trucks, H. B. Schlegel, G. E. Scuseria, 
 M. A. Robb, J. R. Cheeseman, G. Scalmani, V. Barone, 
 G. A. Petersson, H. Nakatsuji, X. Li, M. Caricato, A. V. Marenich, 
 J. Bloino, B. G. Janesko, R. Gomperts, B. Mennucci, H. P. Hratchian, 
 J. V. Ortiz, A. F. Izmaylov, J. L. Sonnenberg, D. Williams-Young, 
 F. Ding, F. Lipparini, F. Egidi, J. Goings, B. Peng, A. Petrone, 
 T. Henderson, D. Ranasinghe, V. G. Zakrzewski, J. Gao, N. Rega, 
 G. Zheng, W. Liang, M. Hada, M. Ehara, K. Toyota, R. Fukuda, 
 J. Hasegawa, M. Ishida, T. Nakajima, Y. Honda, O. Kitao, H. Nakai, 
 T. Vreven, K. Throssell, J. A. Montgomery, Jr., J. E. Peralta, 
 F. Ogliaro, M. J. Bearpark, J. J. Heyd, E. N. Brothers, K. N. Kudin, 
 V. N. Staroverov, T. A. Keith, R. Kobayashi, J. Normand, 
 K. Raghavachari, A. P. Rendell, J. C. Burant, S. S. Iyengar, 
 J. Tomasi, M. Cossi, J. M. Millam, M. Klene, C. Adamo, R. Cammi, 
 J. W. Ochterski, R. L. Martin, K. Morokuma, O. Farkas, 
 J. B. Foresman, and D. J. Fox, Gaussian, Inc., Wallingford CT, 2016.
 
 ******************************************
 Gaussian 16:  ES64L-G16RevA.03 25-Dec-2016
                17-Apr-2021 
 ******************************************
 %RWF=temp21_33311,70GB
 %nprocshared=48
 Will use up to   48 processors via shared memory.
 Default route: MaxDisk=80GB
 ----------------------------------------------------------------------
 #P M062X/GEN Integral=UltraFineGrid SCF=NoSymm Stable=(RExt, Opt) IOp(
 1/33=1)
 ----------------------------------------------------------------------
 1/33=1,38=1,172=1/1;
 2/12=2,17=6,18=5,40=1/2;
 3/5=7,11=2,25=1,30=1,74=-55,75=-5/1,2,3;
 4/9=2/1;
 5/5=2,38=5/2;
 6/7=2,8=2,9=2,10=2,28=1/1;
 8/6=1,10=90,11=11/1;
 9/8=-3,42=1,46=1/14;
 5/5=2,8=3,17=40,38=5/8(-2);
 6/7=2,8=2,9=2,10=2,28=1/1;
 99/5=1,9=1/99;
 Leave Link    1 at Sat Apr 17 20:54:45 2021, MaxMem=           0 cpu:               8.2 elap:               0.2
 (Enter /s/ls4/users/knvvv/bin/g16sse/l101.exe)
 ONIOM data not found on unit 2.
 ----------------------
 Database calculations.
 ----------------------
 TstMul:  ICh=     0
 TstMul:  Mul=     1
 TstMul:  ICh=     0
 TstMul:  Mul=     1
 Symbolic Z-matrix:
 Charge =  0 Multiplicity = 1
 O                    -0.63613  -0.02328   0.2806 
 H                     0.3081   -0.04708   0.07646 
 C                    -1.15207  -1.31129   0.01526 
 H                    -2.20995  -1.29627   0.26396 
 H                    -1.05661  -1.59267  -1.03619 
 H                    -0.67484  -2.08627   0.62051 
 O                     2.24124  -0.12334  -0.01354 
 H                     2.71003   0.49105  -0.5832 
 C                     2.75008   0.03368   1.30818 
 H                     2.19651  -0.65452   1.93831 
 H                     3.80907  -0.21676   1.3649 
 H                     2.59764   1.04438   1.68607 
 
 RdStrC is calling ZToCFu for IStruc=1 NZ=    12.
 PrtBox:  NBox=     2 Levels=  2 BoxLen=    8.00 SMaxX=       11.37
          Shift=            4.176191            3.942484            1.958116
 Box      1 Number                   0 centers from      1 to      6:
 Box      2 Number                   4 centers from      7 to     12:
 After GenITR:
 ITRead=  0  0  0  0  0  0  0  0  0  0  0  0
 MicOpt= -1 -1 -1 -1 -1 -1 -1 -1 -1 -1 -1 -1
 ITRead=  0  0  0  0  0  0  0  0  0  0  0  0
 MicOpt= -1 -1 -1 -1 -1 -1 -1 -1 -1 -1 -1 -1
 NAtoms=     12 NQM=       12 NQMF=       0 NMMI=      0 NMMIF=      0
                NMic=       0 NMicF=      0.
                    Isotopes and Nuclear Properties:
 (Nuclear quadrupole moments (NQMom) in fm**2, nuclear magnetic moments (NMagM)
  in nuclear magnetons)

  Atom         1           2           3           4           5           6           7           8           9          10
 IAtWgt=          16           1          12           1           1           1          16           1          12           1
 AtmWgt=  15.9949146   1.0078250  12.0000000   1.0078250   1.0078250   1.0078250  15.9949146   1.0078250  12.0000000   1.0078250
 NucSpn=           0           1           0           1           1           1           0           1           0           1
 AtZEff=  -0.0000000  -0.0000000  -0.0000000  -0.0000000  -0.0000000  -0.0000000  -0.0000000  -0.0000000  -0.0000000  -0.0000000
 NQMom=    0.0000000   0.0000000   0.0000000   0.0000000   0.0000000   0.0000000   0.0000000   0.0000000   0.0000000   0.0000000
 NMagM=    0.0000000   2.7928460   0.0000000   2.7928460   2.7928460   2.7928460   0.0000000   2.7928460   0.0000000   2.7928460
 AtZNuc=   8.0000000   1.0000000   6.0000000   1.0000000   1.0000000   1.0000000   8.0000000   1.0000000   6.0000000   1.0000000

  Atom        11          12
 IAtWgt=           1           1
 AtmWgt=   1.0078250   1.0078250
 NucSpn=           1           1
 AtZEff=  -0.0000000  -0.0000000
 NQMom=    0.0000000   0.0000000
 NMagM=    2.7928460   2.7928460
 AtZNuc=   1.0000000   1.0000000
 No MM parameters found.
 Leave Link  101 at Sat Apr 17 20:54:45 2021, MaxMem=   104857600 cpu:               5.6 elap:               0.1
 (Enter /s/ls4/users/knvvv/bin/g16sse/l202.exe)
                          Input orientation:                          
 ---------------------------------------------------------------------
 Center     Atomic      Atomic             Coordinates (Angstroms)
 Number     Number       Type             X           Y           Z
 ---------------------------------------------------------------------
      1          8           0       -0.636135   -0.023282    0.280599
      2          1           0        0.308097   -0.047079    0.076464
      3          6           0       -1.152065   -1.311288    0.015260
      4          1           0       -2.209945   -1.296265    0.263956
      5          1           0       -1.056610   -1.592671   -1.036191
      6          1           0       -0.674836   -2.086273    0.620511
      7          8           0        2.241244   -0.123338   -0.013538
      8          1           0        2.710033    0.491047   -0.583204
      9          6           0        2.750078    0.033681    1.308180
     10          1           0        2.196509   -0.654515    1.938310
     11          1           0        3.809074   -0.216758    1.364903
     12          1           0        2.597638    1.044375    1.686072
 ---------------------------------------------------------------------
                    Distance matrix (angstroms):
                    1          2          3          4          5
     1  O    0.000000
     2  H    0.966340   0.000000
     3  C    1.412638   1.932368   0.000000
     4  H    2.024263   2.817119   1.086823   0.000000
     5  H    2.091343   2.342922   1.092628   1.763071   0.000000
     6  H    2.091164   2.328188   1.093014   1.762896   1.770327
     7  O    2.894104   1.936743   3.595359   4.611491   3.752413
     8  H    3.493928   2.548340   4.303763   5.302674   4.328358
     9  C    3.539153   2.736223   4.325194   5.240323   4.757307
    10  H    3.342205   2.720579   3.916941   4.757325   4.506726
    11  H    4.579632   3.734395   5.256656   6.213374   5.597613
    12  H    3.684092   3.004015   4.732974   5.532980   5.264813
                    6          7          8          9         10
     6  H    0.000000
     7  O    3.571926   0.000000
     8  H    4.421408   0.960079   0.000000
     9  C    4.086212   1.424957   1.946309   0.000000
    10  H    3.468594   2.023329   2.816745   1.084951   0.000000
    11  H    4.914738   2.089717   2.346060   1.089683   1.766577
    12  H    4.652468   2.092664   2.338465   1.089745   1.763734
                   11         12
    11  H    0.000000
    12  H    1.777972   0.000000
 Stoichiometry    C2H8O2
 Framework group  C1[X(C2H8O2)]
 Deg. of freedom    30
 Full point group                 C1      NOp   1
 Largest Abelian subgroup         C1      NOp   1
 Largest concise Abelian subgroup C1      NOp   1
                         Standard orientation:                         
 ---------------------------------------------------------------------
 Center     Atomic      Atomic             Coordinates (Angstroms)
 Number     Number       Type             X           Y           Z
 ---------------------------------------------------------------------
      1          8           0        1.338754   -0.179751   -0.689801
      2          1           0        0.485976    0.208846   -0.454056
      3          6           0        2.194780   -0.010511    0.421111
      4          1           0        3.149221   -0.465359    0.169431
      5          1           0        2.373823    1.041457    0.655932
      6          1           0        1.814843   -0.501062    1.320937
      7          8           0       -1.315890    0.683365    0.074223
      8          1           0       -1.802815    1.329268   -0.442946
      9          6           0       -2.090657   -0.511714    0.119238
     10          1           0       -1.516654   -1.233078    0.691315
     11          1           0       -3.047000   -0.353689    0.617080
     12          1           0       -2.265039   -0.921943   -0.875169
 ---------------------------------------------------------------------
 Rotational constants (GHZ):          16.2443162           2.2979191           2.2626005
 Leave Link  202 at Sat Apr 17 20:54:45 2021, MaxMem=   104857600 cpu:               5.5 elap:               0.1
 (Enter /s/ls4/users/knvvv/bin/g16sse/l301.exe)
 General basis read from cards:  (5D, 7F)
 Centers:       2      4      5      6      8     10     11     12
 S 4 1.00
     Exponent=  1.9069169000D+02 Coefficients=  7.0815167000D-04
     Exponent=  2.8605532000D+01 Coefficients=  5.4678827000D-03
     Exponent=  6.5095943000D+00 Coefficients=  2.7966605000D-02
     Exponent=  1.8412455000D+00 Coefficients=  1.0764538000D-01
 S 1 1.00
     Exponent=  5.9853725000D-01 Coefficients=  1.0000000000D+00
 S 1 1.00
     Exponent=  2.1397624000D-01 Coefficients=  1.0000000000D+00
 S 1 1.00
     Exponent=  8.0316286000D-02 Coefficients=  1.0000000000D+00
 P 1 1.00
     Exponent=  2.2920000000D+00 Coefficients=  1.0000000000D+00
 P 1 1.00
     Exponent=  8.3800000000D-01 Coefficients=  1.0000000000D+00
 P 1 1.00
     Exponent=  2.9200000000D-01 Coefficients=  1.0000000000D+00
 P 1 1.00
     Exponent=  8.4063199228D-02 Coefficients=  1.0000000000D+00
 D 1 1.00
     Exponent=  2.0620000000D+00 Coefficients=  1.0000000000D+00
 D 1 1.00
     Exponent=  6.6200000000D-01 Coefficients=  1.0000000000D+00
 F 1 1.00
     Exponent=  1.3970000000D+00 Coefficients=  1.0000000000D+00
 ****
 Centers:       3      9
 S 8 1.00
     Exponent=  6.7025071029D+04 Coefficients=  3.8736308501D-05
     Exponent=  1.0039986538D+04 Coefficients=  3.0107917575D-04
     Exponent=  2.2849316911D+03 Coefficients=  1.5787918095D-03
     Exponent=  6.4714122130D+02 Coefficients=  6.6087087195D-03
     Exponent=  2.1109472335D+02 Coefficients=  2.3367123250D-02
     Exponent=  7.6177643862D+01 Coefficients=  7.0420716898D-02
     Exponent=  2.9633839163D+01 Coefficients=  1.7360344953D-01
     Exponent=  1.2187785081D+01 Coefficients=  3.2292305648D-01
 S 2 1.00
     Exponent=  5.3026006299D+01 Coefficients=  7.4897404492D-02
     Exponent=  1.5258502776D+01 Coefficients=  7.6136220983D-01
 S 1 1.00
     Exponent=  5.2403957464D+00 Coefficients=  1.0000000000D+00
 S 1 1.00
     Exponent=  2.2905022379D+00 Coefficients=  1.0000000000D+00
 S 1 1.00
     Exponent=  6.9673283006D-01 Coefficients=  1.0000000000D+00
 S 1 1.00
     Exponent=  2.7599337363D-01 Coefficients=  1.0000000000D+00
 S 1 1.00
     Exponent=  1.0739884389D-01 Coefficients=  1.0000000000D+00
 S 1 1.00
     Exponent=  4.4981404899D-02 Coefficients=  1.0000000000D+00
 P 5 1.00
     Exponent=  1.0512555082D+02 Coefficients=  8.4647553844D-04
     Exponent=  2.4884461066D+01 Coefficients=  6.6274038534D-03
     Exponent=  7.8637230826D+00 Coefficients=  3.0120390419D-02
     Exponent=  2.8407001835D+00 Coefficients=  9.9951435476D-02
     Exponent=  1.1227137335D+00 Coefficients=  2.3826299282D-01
 P 1 1.00
     Exponent=  4.6050725555D-01 Coefficients=  1.0000000000D+00
 P 1 1.00
     Exponent=  1.8937530913D-01 Coefficients=  1.0000000000D+00
 P 1 1.00
     Exponent=  7.5983791611D-02 Coefficients=  1.0000000000D+00
 D 1 1.00
     Exponent=  1.8480000000D+00 Coefficients=  1.0000000000D+00
 D 1 1.00
     Exponent=  6.4900000000D-01 Coefficients=  1.0000000000D+00
 D 1 1.00
     Exponent=  2.2800000000D-01 Coefficients=  1.0000000000D+00
 D 1 1.00
     Exponent=  7.6889830417D-02 Coefficients=  1.0000000000D+00
 F 1 1.00
     Exponent=  1.4190000000D+00 Coefficients=  1.0000000000D+00
 F 1 1.00
     Exponent=  4.8500000000D-01 Coefficients=  1.0000000000D+00
 G 1 1.00
     Exponent=  1.0110000000D+00 Coefficients=  1.0000000000D+00
 ****
 Centers:       1      7
 S 8 1.00
     Exponent=  1.1650646908D+05 Coefficients=  4.0383857939D-05
     Exponent=  1.7504349724D+04 Coefficients=  3.1255139004D-04
     Exponent=  3.9934513230D+03 Coefficients=  1.6341473495D-03
     Exponent=  1.1330063186D+03 Coefficients=  6.8283224757D-03
     Exponent=  3.6999569594D+02 Coefficients=  2.4124410221D-02
     Exponent=  1.3362074349D+02 Coefficients=  7.2730206154D-02
     Exponent=  5.2035643649D+01 Coefficients=  1.7934429892D-01
     Exponent=  2.1461939313D+01 Coefficients=  3.3059588895D-01
 S 2 1.00
     Exponent=  8.9835051252D+01 Coefficients=  9.6468652996D-02
     Exponent=  2.6428010844D+01 Coefficients=  9.4117481120D-01
 S 1 1.00
     Exponent=  9.2822824649D+00 Coefficients=  1.0000000000D+00
 S 1 1.00
     Exponent=  4.0947728533D+00 Coefficients=  1.0000000000D+00
 S 1 1.00
     Exponent=  1.3255349078D+00 Coefficients=  1.0000000000D+00
 S 1 1.00
     Exponent=  5.1877230787D-01 Coefficients=  1.0000000000D+00
 S 1 1.00
     Exponent=  1.9772676454D-01 Coefficients=  1.0000000000D+00
 S 1 1.00
     Exponent=  6.9638535104D-02 Coefficients=  1.0000000000D+00
 P 5 1.00
     Exponent=  1.9115255810D+02 Coefficients=  2.5115697705D-03
     Exponent=  4.5233356739D+01 Coefficients=  2.0039240864D-02
     Exponent=  1.4353465922D+01 Coefficients=  9.3609064762D-02
     Exponent=  5.2422371832D+00 Coefficients=  3.0618127124D-01
     Exponent=  2.0792418599D+00 Coefficients=  6.7810501439D-01
 P 1 1.00
     Exponent=  8.4282371424D-01 Coefficients=  1.0000000000D+00
 P 1 1.00
     Exponent=  3.3617694891D-01 Coefficients=  1.0000000000D+00
 P 1 1.00
     Exponent=  1.2863997974D-01 Coefficients=  1.0000000000D+00
 P 1 1.00
     Exponent=  4.3598162776D-02 Coefficients=  1.0000000000D+00
 D 1 1.00
     Exponent=  3.7750000000D+00 Coefficients=  1.0000000000D+00
 D 1 1.00
     Exponent=  1.3000000000D+00 Coefficients=  1.0000000000D+00
 D 1 1.00
     Exponent=  4.4400000000D-01 Coefficients=  1.0000000000D+00
 D 1 1.00
     Exponent=  1.2546378695D-01 Coefficients=  1.0000000000D+00
 F 1 1.00
     Exponent=  2.6660000000D+00 Coefficients=  1.0000000000D+00
 F 1 1.00
     Exponent=  8.5900000000D-01 Coefficients=  1.0000000000D+00
 G 1 1.00
     Exponent=  1.8460000000D+00 Coefficients=  1.0000000000D+00
 ****
 Ernie: Thresh=  0.10000D-02 Tol=  0.10000D-05 Strict=F.
 There are   626 symmetry adapted cartesian basis functions of A   symmetry.
 There are   522 symmetry adapted basis functions of A   symmetry.
   522 basis functions,   730 primitive gaussians,   626 cartesian basis functions
    18 alpha electrons       18 beta electrons
       nuclear repulsion energy       129.1070657037 Hartrees.
 IExCor= 4336 DFT=T Ex+Corr=M062X ExCW=0 ScaHFX=  0.540000
 ScaDFX=  1.000000  1.000000  1.000000  1.000000 ScalE2=  1.000000  1.000000
 IRadAn=      5 IRanWt=     -1 IRanGd=            0 ICorTp=0 IEmpDi=  4
 NAtoms=   12 NActive=   12 NUniq=   12 SFac= 1.00D+00 NAtFMM=   60 NAOKFM=F Big=F
 Integral buffers will be    131072 words long.
 Raffenetti 2 integral format.
 Two-electron integral symmetry is turned on.
 Leave Link  301 at Sat Apr 17 20:54:45 2021, MaxMem=   104857600 cpu:               7.4 elap:               0.2
 (Enter /s/ls4/users/knvvv/bin/g16sse/l302.exe)
 NPDir=0 NMtPBC=     1 NCelOv=     1 NCel=       1 NClECP=     1 NCelD=      1
         NCelK=      1 NCelE2=     1 NClLst=     1 CellRange=     0.0.
 One-electron integrals computed using PRISM.
 One-electron integral symmetry used in STVInt
 PrsmSu:  requested number of processors reduced to:   4 ShMem   1 Linda.
 PrsmSu:  requested number of processors reduced to:  20 ShMem   1 Linda.
 NBasis=   522 RedAO= T EigKep=  1.11D-06  NBF=   522
 NBsUse=   520 1.00D-06 EigRej=  9.66D-07 NBFU=   520
 Precomputing XC quadrature grid using
 IXCGrd= 4 IRadAn=           5 IRanWt=          -1 IRanGd=           0 AccXCQ= 0.00D+00.
 Generated NRdTot=       0 NPtTot=           0 NUsed=           0 NTot=          32
 NSgBfM=   624   624   624   624   624 MxSgAt=    12 MxSgA2=    12.
 Leave Link  302 at Sat Apr 17 20:54:53 2021, MaxMem=   104857600 cpu:             351.6 elap:               7.6
 (Enter /s/ls4/users/knvvv/bin/g16sse/l303.exe)
 DipDrv:  MaxL=1.
 Leave Link  303 at Sat Apr 17 20:54:55 2021, MaxMem=   104857600 cpu:             126.7 elap:               2.7
 (Enter /s/ls4/users/knvvv/bin/g16sse/l401.exe)
 SCF N**3 symmetry information disabled.
 ExpMin= 4.36D-02 ExpMax= 1.17D+05 ExpMxC= 1.13D+03 IAcc=3 IRadAn=         5 AccDes= 0.00D+00
 Harris functional with IExCor= 1009 and IRadAn=       5 diagonalized for initial guess.
 HarFok:  IExCor= 1009 AccDes= 0.00D+00 IRadAn=         5 IDoV= 1 UseB2=F ITyADJ=14
 ICtDFT=  3500011 ScaDFX=  1.000000  1.000000  1.000000  1.000000
 FoFCou: FMM=F IPFlag=           0 FMFlag=      100000 FMFlg1=           0
         NFxFlg=           0 DoJE=T BraDBF=F KetDBF=T FulRan=T
         wScrn=  0.000000 ICntrl=       500 IOpCl=  0 I1Cent=   200000004 NGrid=           0
         NMat0=    1 NMatS0=      1 NMatT0=    0 NMatD0=    1 NMtDS0=    0 NMtDT0=    0
 Petite list used in FoFCou.
 CoulSu:  requested number of processors reduced to:  19 ShMem   1 Linda.
 CoulSu:  requested number of processors reduced to:  19 ShMem   1 Linda.
 CoulSu:  requested number of processors reduced to:  21 ShMem   1 Linda.
 CoulSu:  requested number of processors reduced to:  21 ShMem   1 Linda.
 Harris En= -231.412141042647    
 JPrj=0 DoOrth=F DoCkMO=F.
 Leave Link  401 at Sat Apr 17 20:54:58 2021, MaxMem=   104857600 cpu:             127.6 elap:               3.0
 (Enter /s/ls4/users/knvvv/bin/g16sse/l502.exe)
 Integral symmetry usage will be decided dynamically.
 Closed shell SCF:
 Using DIIS extrapolation, IDIIS=  1040.
 NGot=   104857600 LenX=   104038812 LenY=   103646310
 Requested convergence on RMS density matrix=1.00D-08 within 128 cycles.
 Requested convergence on MAX density matrix=1.00D-06.
 Requested convergence on             energy=1.00D-06.
 No special actions if energy rises.
 Fock matrices will be formed incrementally for  20 cycles.

 Cycle   1  Pass 1  IDiag  1:
 FoFJK:  IHMeth= 1 ICntrl=       0 DoSepK=F KAlg= 0 I1Cent=           0 FoldK=F
 IRaf= 920000000 NMat=       1 IRICut=       1 DoRegI=T DoRafI=F ISym2E= 0 IDoP0=0 IntGTp=1.
 FoFCou: FMM=F IPFlag=           0 FMFlag=      100000 FMFlg1=           0
         NFxFlg=           0 DoJE=F BraDBF=F KetDBF=F FulRan=T
         wScrn=  0.000000 ICntrl=         0 IOpCl=  0 I1Cent=           0 NGrid=           0
         NMat0=    1 NMatS0=      1 NMatT0=    0 NMatD0=    1 NMtDS0=    0 NMtDT0=    0
 Symmetry not used in FoFCou.
 CoulSu:  requested number of processors reduced to:  20 ShMem   1 Linda.
 E= -231.301491981973    
 DIIS: error= 1.60D-02 at cycle   1 NSaved=   1.
 NSaved= 1 IEnMin= 1 EnMin= -231.301491981973     IErMin= 1 ErrMin= 1.60D-02
 ErrMax= 1.60D-02  0.00D+00 EMaxC= 1.00D-01 BMatC= 2.97D-01 BMatP= 2.97D-01
 IDIUse=3 WtCom= 8.40D-01 WtEn= 1.60D-01
 Coeff-Com:  0.100D+01
 Coeff-En:   0.100D+01
 Coeff:      0.100D+01
 Gap=     0.269 Goal=   None    Shift=    0.000
 GapD=    0.269 DampG=1.000 DampE=0.500 DampFc=0.5000 IDamp=-1.
 Damping current iteration by 5.00D-01
 RMSDP=3.21D-03 MaxDP=3.11D-01              OVMax= 1.46D-01

 Cycle   2  Pass 1  IDiag  1:
 RMSU=  1.16D-03    CP:  7.67D-01
 CoulSu:  requested number of processors reduced to:  20 ShMem   1 Linda.
 E= -231.381907526720     Delta-E=       -0.080415544747 Rises=F Damp=T
 DIIS: error= 8.63D-03 at cycle   2 NSaved=   2.
 NSaved= 2 IEnMin= 2 EnMin= -231.381907526720     IErMin= 2 ErrMin= 8.63D-03
 ErrMax= 8.63D-03  0.00D+00 EMaxC= 1.00D-01 BMatC= 3.68D-02 BMatP= 2.97D-01
 IDIUse=3 WtCom= 9.14D-01 WtEn= 8.63D-02
 Coeff-Com: -0.125D+00 0.113D+01
 Coeff-En:   0.000D+00 0.100D+01
 Coeff:     -0.115D+00 0.111D+01
 Gap=     0.352 Goal=   None    Shift=    0.000
 RMSDP=1.93D-03 MaxDP=1.12D-01 DE=-8.04D-02 OVMax= 8.81D-02

 Cycle   3  Pass 1  IDiag  1:
 RMSU=  1.14D-03    CP:  5.32D-01  1.94D+00
 CoulSu:  requested number of processors reduced to:  20 ShMem   1 Linda.
 E= -231.459851224305     Delta-E=       -0.077943697585 Rises=F Damp=F
 DIIS: error= 2.87D-03 at cycle   3 NSaved=   3.
 NSaved= 3 IEnMin= 3 EnMin= -231.459851224305     IErMin= 3 ErrMin= 2.87D-03
 ErrMax= 2.87D-03  0.00D+00 EMaxC= 1.00D-01 BMatC= 8.24D-03 BMatP= 3.68D-02
 IDIUse=3 WtCom= 9.71D-01 WtEn= 2.87D-02
 Coeff-Com: -0.133D+00 0.361D+00 0.772D+00
 Coeff-En:   0.000D+00 0.000D+00 0.100D+01
 Coeff:     -0.129D+00 0.350D+00 0.779D+00
 Gap=     0.330 Goal=   None    Shift=    0.000
 RMSDP=1.96D-04 MaxDP=1.86D-02 DE=-7.79D-02 OVMax= 1.70D-02

 Cycle   4  Pass 1  IDiag  1:
 RMSU=  1.90D-04    CP:  5.40D-01  1.95D+00  1.02D+00
 CoulSu:  requested number of processors reduced to:  20 ShMem   1 Linda.
 E= -231.464218405849     Delta-E=       -0.004367181544 Rises=F Damp=F
 DIIS: error= 1.20D-03 at cycle   4 NSaved=   4.
 NSaved= 4 IEnMin= 4 EnMin= -231.464218405849     IErMin= 4 ErrMin= 1.20D-03
 ErrMax= 1.20D-03  0.00D+00 EMaxC= 1.00D-01 BMatC= 1.15D-03 BMatP= 8.24D-03
 IDIUse=3 WtCom= 9.88D-01 WtEn= 1.20D-02
 Coeff-Com: -0.507D-01 0.108D+00 0.362D+00 0.580D+00
 Coeff-En:   0.000D+00 0.000D+00 0.387D-01 0.961D+00
 Coeff:     -0.501D-01 0.107D+00 0.359D+00 0.585D+00
 Gap=     0.330 Goal=   None    Shift=    0.000
 RMSDP=5.62D-05 MaxDP=3.59D-03 DE=-4.37D-03 OVMax= 6.24D-03

 Cycle   5  Pass 1  IDiag  1:
 RMSU=  3.98D-05    CP:  5.38D-01  1.95D+00  1.00D+00  8.50D-01
 CoulSu:  requested number of processors reduced to:  20 ShMem   1 Linda.
 E= -231.465072078972     Delta-E=       -0.000853673123 Rises=F Damp=F
 DIIS: error= 1.80D-04 at cycle   5 NSaved=   5.
 NSaved= 5 IEnMin= 5 EnMin= -231.465072078972     IErMin= 5 ErrMin= 1.80D-04
 ErrMax= 1.80D-04  0.00D+00 EMaxC= 1.00D-01 BMatC= 1.47D-05 BMatP= 1.15D-03
 IDIUse=3 WtCom= 9.98D-01 WtEn= 1.80D-03
 Coeff-Com: -0.750D-02 0.147D-01 0.637D-01 0.164D+00 0.765D+00
 Coeff-En:   0.000D+00 0.000D+00 0.000D+00 0.000D+00 0.100D+01
 Coeff:     -0.748D-02 0.147D-01 0.636D-01 0.164D+00 0.766D+00
 Gap=     0.330 Goal=   None    Shift=    0.000
 RMSDP=2.08D-05 MaxDP=1.73D-03 DE=-8.54D-04 OVMax= 6.72D-04

 Cycle   6  Pass 1  IDiag  1:
 RMSU=  1.47D-05    CP:  5.38D-01  1.95D+00  9.93D-01  8.44D-01  1.26D+00
 CoulSu:  requested number of processors reduced to:  20 ShMem   1 Linda.
 E= -231.465082412936     Delta-E=       -0.000010333963 Rises=F Damp=F
 DIIS: error= 1.50D-05 at cycle   6 NSaved=   6.
 NSaved= 6 IEnMin= 6 EnMin= -231.465082412936     IErMin= 6 ErrMin= 1.50D-05
 ErrMax= 1.50D-05  0.00D+00 EMaxC= 1.00D-01 BMatC= 2.02D-07 BMatP= 1.47D-05
 IDIUse=1 WtCom= 1.00D+00 WtEn= 0.00D+00
 Coeff-Com:  0.184D-02-0.368D-02-0.116D-01-0.107D-01 0.138D-01 0.101D+01
 Coeff:      0.184D-02-0.368D-02-0.116D-01-0.107D-01 0.138D-01 0.101D+01
 Gap=     0.330 Goal=   None    Shift=    0.000
 RMSDP=5.93D-06 MaxDP=3.82D-04 DE=-1.03D-05 OVMax= 1.41D-04

 Cycle   7  Pass 1  IDiag  1:
 RMSU=  1.91D-06    CP:  5.38D-01  1.95D+00  9.92D-01  8.51D-01  1.35D+00
                    CP:  1.24D+00
 CoulSu:  requested number of processors reduced to:  20 ShMem   1 Linda.
 E= -231.465082552636     Delta-E=       -0.000000139700 Rises=F Damp=F
 DIIS: error= 8.43D-06 at cycle   7 NSaved=   7.
 NSaved= 7 IEnMin= 7 EnMin= -231.465082552636     IErMin= 7 ErrMin= 8.43D-06
 ErrMax= 8.43D-06  0.00D+00 EMaxC= 1.00D-01 BMatC= 8.55D-08 BMatP= 2.02D-07
 IDIUse=1 WtCom= 1.00D+00 WtEn= 0.00D+00
 Coeff-Com:  0.115D-02-0.232D-02-0.781D-02-0.104D-01-0.190D-01 0.497D+00
 Coeff-Com:  0.541D+00
 Coeff:      0.115D-02-0.232D-02-0.781D-02-0.104D-01-0.190D-01 0.497D+00
 Coeff:      0.541D+00
 Gap=     0.330 Goal=   None    Shift=    0.000
 RMSDP=7.00D-07 MaxDP=5.95D-05 DE=-1.40D-07 OVMax= 5.71D-05

 Cycle   8  Pass 1  IDiag  1:
 RMSU=  4.54D-07    CP:  5.38D-01  1.94D+00  9.92D-01  8.53D-01  1.35D+00
                    CP:  1.25D+00  1.08D+00
 CoulSu:  requested number of processors reduced to:  20 ShMem   1 Linda.
 E= -231.465082608188     Delta-E=       -0.000000055552 Rises=F Damp=F
 DIIS: error= 2.14D-06 at cycle   8 NSaved=   8.
 NSaved= 8 IEnMin= 8 EnMin= -231.465082608188     IErMin= 8 ErrMin= 2.14D-06
 ErrMax= 2.14D-06  0.00D+00 EMaxC= 1.00D-01 BMatC= 3.04D-09 BMatP= 8.55D-08
 IDIUse=1 WtCom= 1.00D+00 WtEn= 0.00D+00
 Coeff-Com: -0.389D-04 0.510D-04 0.112D-03-0.282D-03-0.453D-02-0.268D-01
 Coeff-Com:  0.128D+00 0.904D+00
 Coeff:     -0.389D-04 0.510D-04 0.112D-03-0.282D-03-0.453D-02-0.268D-01
 Coeff:      0.128D+00 0.904D+00
 Gap=     0.330 Goal=   None    Shift=    0.000
 RMSDP=4.78D-07 MaxDP=4.21D-05 DE=-5.56D-08 OVMax= 2.00D-05

 Cycle   9  Pass 1  IDiag  1:
 RMSU=  1.74D-07    CP:  5.38D-01  1.94D+00  9.92D-01  8.54D-01  1.35D+00
                    CP:  1.25D+00  1.17D+00  1.19D+00
 CoulSu:  requested number of processors reduced to:  20 ShMem   1 Linda.
 E= -231.465082610696     Delta-E=       -0.000000002508 Rises=F Damp=F
 DIIS: error= 6.77D-07 at cycle   9 NSaved=   9.
 NSaved= 9 IEnMin= 9 EnMin= -231.465082610696     IErMin= 9 ErrMin= 6.77D-07
 ErrMax= 6.77D-07  0.00D+00 EMaxC= 1.00D-01 BMatC= 2.37D-10 BMatP= 3.04D-09
 IDIUse=1 WtCom= 1.00D+00 WtEn= 0.00D+00
 Coeff-Com: -0.621D-04 0.117D-03 0.333D-03 0.291D-03-0.899D-03-0.311D-01
 Coeff-Com:  0.148D-01 0.288D+00 0.728D+00
 Coeff:     -0.621D-04 0.117D-03 0.333D-03 0.291D-03-0.899D-03-0.311D-01
 Coeff:      0.148D-01 0.288D+00 0.728D+00
 Gap=     0.330 Goal=   None    Shift=    0.000
 RMSDP=6.09D-08 MaxDP=4.05D-06 DE=-2.51D-09 OVMax= 4.57D-06

 Cycle  10  Pass 1  IDiag  1:
 RMSU=  3.88D-08    CP:  5.38D-01  1.94D+00  9.92D-01  8.54D-01  1.35D+00
                    CP:  1.25D+00  1.19D+00  1.23D+00  1.04D+00
 CoulSu:  requested number of processors reduced to:  20 ShMem   1 Linda.
 E= -231.465082610912     Delta-E=       -0.000000000216 Rises=F Damp=F
 DIIS: error= 1.86D-07 at cycle  10 NSaved=  10.
 NSaved=10 IEnMin=10 EnMin= -231.465082610912     IErMin=10 ErrMin= 1.86D-07
 ErrMax= 1.86D-07  0.00D+00 EMaxC= 1.00D-01 BMatC= 2.05D-11 BMatP= 2.37D-10
 IDIUse=1 WtCom= 1.00D+00 WtEn= 0.00D+00
 Coeff-Com: -0.104D-04 0.229D-04 0.474D-04 0.512D-04 0.259D-04-0.540D-02
 Coeff-Com: -0.109D-01-0.231D-01 0.206D+00 0.833D+00
 Coeff:     -0.104D-04 0.229D-04 0.474D-04 0.512D-04 0.259D-04-0.540D-02
 Coeff:     -0.109D-01-0.231D-01 0.206D+00 0.833D+00
 Gap=     0.330 Goal=   None    Shift=    0.000
 RMSDP=4.36D-08 MaxDP=4.26D-06 DE=-2.16D-10 OVMax= 1.44D-06

 Cycle  11  Pass 1  IDiag  1:
 RMSU=  1.44D-08    CP:  5.38D-01  1.94D+00  9.92D-01  8.54D-01  1.35D+00
                    CP:  1.25D+00  1.19D+00  1.24D+00  1.06D+00  1.19D+00
 CoulSu:  requested number of processors reduced to:  20 ShMem   1 Linda.
 E= -231.465082610936     Delta-E=       -0.000000000024 Rises=F Damp=F
 DIIS: error= 2.06D-08 at cycle  11 NSaved=  11.
 NSaved=11 IEnMin=11 EnMin= -231.465082610936     IErMin=11 ErrMin= 2.06D-08
 ErrMax= 2.06D-08  0.00D+00 EMaxC= 1.00D-01 BMatC= 3.56D-13 BMatP= 2.05D-11
 IDIUse=1 WtCom= 1.00D+00 WtEn= 0.00D+00
 Coeff-Com:  0.907D-06-0.117D-05-0.234D-05-0.355D-05 0.174D-04 0.510D-03
 Coeff-Com: -0.925D-03-0.923D-02-0.227D-01 0.181D-01 0.101D+01
 Coeff:      0.907D-06-0.117D-05-0.234D-05-0.355D-05 0.174D-04 0.510D-03
 Coeff:     -0.925D-03-0.923D-02-0.227D-01 0.181D-01 0.101D+01
 Gap=     0.330 Goal=   None    Shift=    0.000
 RMSDP=6.86D-09 MaxDP=7.85D-07 DE=-2.42D-11 OVMax= 3.05D-07

 SCF Done:  E(RM062X) =  -231.465082611     A.U. after   11 cycles
            NFock= 11  Conv=0.69D-08     -V/T= 2.0038
 KE= 2.305884244872D+02 PE=-8.014712203938D+02 EE= 2.103106475920D+02
 Leave Link  502 at Sat Apr 17 20:58:17 2021, MaxMem=   104857600 cpu:            6155.0 elap:             198.2
 (Enter /s/ls4/users/knvvv/bin/g16sse/l601.exe)
 Copying SCF densities to generalized density rwf, IOpCl= 0 IROHF=0.

 **********************************************************************

            Population analysis using the SCF density.

 **********************************************************************

 Orbital symmetries:
       Occupied  (A) (A) (A) (A) (A) (A) (A) (A) (A) (A) (A) (A)
                 (A) (A) (A) (A) (A) (A)
       Virtual   (A) (A) (A) (A) (A) (A) (A) (A) (A) (A) (A) (A)
                 (A) (A) (A) (A) (A) (A) (A) (A) (A) (A) (A) (A)
                 (A) (A) (A) (A) (A) (A) (A) (A) (A) (A) (A) (A)
                 (A) (A) (A) (A) (A) (A) (A) (A) (A) (A) (A) (A)
                 (A) (A) (A) (A) (A) (A) (A) (A) (A) (A) (A) (A)
                 (A) (A) (A) (A) (A) (A) (A) (A) (A) (A) (A) (A)
                 (A) (A) (A) (A) (A) (A) (A) (A) (A) (A) (A) (A)
                 (A) (A) (A) (A) (A) (A) (A) (A) (A) (A) (A) (A)
                 (A) (A) (A) (A) (A) (A) (A) (A) (A) (A) (A) (A)
                 (A) (A) (A) (A) (A) (A) (A) (A) (A) (A) (A) (A)
                 (A) (A) (A) (A) (A) (A) (A) (A) (A) (A) (A) (A)
                 (A) (A) (A) (A) (A) (A) (A) (A) (A) (A) (A) (A)
                 (A) (A) (A) (A) (A) (A) (A) (A) (A) (A) (A) (A)
                 (A) (A) (A) (A) (A) (A) (A) (A) (A) (A) (A) (A)
                 (A) (A) (A) (A) (A) (A) (A) (A) (A) (A) (A) (A)
                 (A) (A) (A) (A) (A) (A) (A) (A) (A) (A) (A) (A)
                 (A) (A) (A) (A) (A) (A) (A) (A) (A) (A) (A) (A)
                 (A) (A) (A) (A) (A) (A) (A) (A) (A) (A) (A) (A)
                 (A) (A) (A) (A) (A) (A) (A) (A) (A) (A) (A) (A)
                 (A) (A) (A) (A) (A) (A) (A) (A) (A) (A) (A) (A)
                 (A) (A) (A) (A) (A) (A) (A) (A) (A) (A) (A) (A)
                 (A) (A) (A) (A) (A) (A) (A) (A) (A) (A) (A) (A)
                 (A) (A) (A) (A) (A) (A) (A) (A) (A) (A) (A) (A)
                 (A) (A) (A) (A) (A) (A) (A) (A) (A) (A) (A) (A)
                 (A) (A) (A) (A) (A) (A) (A) (A) (A) (A) (A) (A)
                 (A) (A) (A) (A) (A) (A) (A) (A) (A) (A) (A) (A)
                 (A) (A) (A) (A) (A) (A) (A) (A) (A) (A) (A) (A)
                 (A) (A) (A) (A) (A) (A) (A) (A) (A) (A) (A) (A)
                 (A) (A) (A) (A) (A) (A) (A) (A) (A) (A) (A) (A)
                 (A) (A) (A) (A) (A) (A) (A) (A) (A) (A) (A) (A)
                 (A) (A) (A) (A) (A) (A) (A) (A) (A) (A) (A) (A)
                 (A) (A) (A) (A) (A) (A) (A) (A) (A) (A) (A) (A)
                 (A) (A) (A) (A) (A) (A) (A) (A) (A) (A) (A) (A)
                 (A) (A) (A) (A) (A) (A) (A) (A) (A) (A) (A) (A)
                 (A) (A) (A) (A) (A) (A) (A) (A) (A) (A) (A) (A)
                 (A) (A) (A) (A) (A) (A) (A) (A) (A) (A) (A) (A)
                 (A) (A) (A) (A) (A) (A) (A) (A) (A) (A) (A) (A)
                 (A) (A) (A) (A) (A) (A) (A) (A) (A) (A) (A) (A)
                 (A) (A) (A) (A) (A) (A) (A) (A) (A) (A) (A) (A)
                 (A) (A) (A) (A) (A) (A) (A) (A) (A) (A) (A) (A)
                 (A) (A) (A) (A) (A) (A) (A) (A) (A) (A) (A) (A)
                 (A) (A) (A) (A) (A) (A) (A) (A) (A) (A)
 The electronic state is 1-A.
 Alpha  occ. eigenvalues --  -19.64999 -19.59768 -10.59406 -10.56246  -1.16663
 Alpha  occ. eigenvalues --   -1.11824  -0.79411  -0.75721  -0.60960  -0.56857
 Alpha  occ. eigenvalues --   -0.53325  -0.51708  -0.49850  -0.48019  -0.43527
 Alpha  occ. eigenvalues --   -0.39357  -0.37478  -0.33340
 Alpha virt. eigenvalues --   -0.00346   0.02126   0.02409   0.03750   0.05658
 Alpha virt. eigenvalues --    0.06408   0.06789   0.07948   0.08674   0.10922
 Alpha virt. eigenvalues --    0.11457   0.12826   0.13335   0.13900   0.15187
 Alpha virt. eigenvalues --    0.16095   0.17374   0.17840   0.18864   0.18991
 Alpha virt. eigenvalues --    0.19673   0.20725   0.21328   0.21609   0.22095
 Alpha virt. eigenvalues --    0.22927   0.23739   0.24494   0.25251   0.26020
 Alpha virt. eigenvalues --    0.26757   0.27484   0.27891   0.28147   0.28874
 Alpha virt. eigenvalues --    0.29590   0.29948   0.30581   0.30846   0.31485
 Alpha virt. eigenvalues --    0.32314   0.32795   0.32890   0.33523   0.34539
 Alpha virt. eigenvalues --    0.35623   0.35651   0.37061   0.37316   0.38388
 Alpha virt. eigenvalues --    0.39285   0.39506   0.40093   0.41104   0.41611
 Alpha virt. eigenvalues --    0.42776   0.43664   0.45010   0.47141   0.48280
 Alpha virt. eigenvalues --    0.49016   0.50019   0.51036   0.51934   0.53043
 Alpha virt. eigenvalues --    0.54082   0.54887   0.56207   0.56500   0.57499
 Alpha virt. eigenvalues --    0.58250   0.60149   0.61060   0.62944   0.63436
 Alpha virt. eigenvalues --    0.65166   0.65873   0.67880   0.69999   0.70674
 Alpha virt. eigenvalues --    0.71659   0.72549   0.74329   0.74923   0.77160
 Alpha virt. eigenvalues --    0.78489   0.81485   0.82395   0.83020   0.84334
 Alpha virt. eigenvalues --    0.85515   0.86604   0.87648   0.88357   0.89634
 Alpha virt. eigenvalues --    0.90307   0.91099   0.92957   0.93730   0.97445
 Alpha virt. eigenvalues --    0.98647   0.99450   1.00713   1.04817   1.06961
 Alpha virt. eigenvalues --    1.07555   1.08617   1.11451   1.11695   1.13681
 Alpha virt. eigenvalues --    1.14415   1.15065   1.17787   1.18495   1.19642
 Alpha virt. eigenvalues --    1.20307   1.22274   1.24433   1.25421   1.26790
 Alpha virt. eigenvalues --    1.28900   1.29313   1.31534   1.32342   1.33451
 Alpha virt. eigenvalues --    1.38969   1.43146   1.44818   1.45388   1.47147
 Alpha virt. eigenvalues --    1.47948   1.48767   1.49696   1.52337   1.56624
 Alpha virt. eigenvalues --    1.60012   1.63773   1.64718   1.67435   1.70937
 Alpha virt. eigenvalues --    1.75229   1.82618   1.84967   1.86042   1.88756
 Alpha virt. eigenvalues --    1.91035   1.92205   1.94312   1.95920   1.96191
 Alpha virt. eigenvalues --    1.97383   1.98366   1.98766   2.00881   2.01786
 Alpha virt. eigenvalues --    2.03016   2.03940   2.04971   2.07016   2.07494
 Alpha virt. eigenvalues --    2.09569   2.12764   2.14065   2.15231   2.18599
 Alpha virt. eigenvalues --    2.20045   2.22481   2.22869   2.24226   2.26073
 Alpha virt. eigenvalues --    2.29057   2.31098   2.32660   2.34023   2.35038
 Alpha virt. eigenvalues --    2.37178   2.39880   2.42731   2.44301   2.45949
 Alpha virt. eigenvalues --    2.46662   2.49890   2.54514   2.55023   2.57047
 Alpha virt. eigenvalues --    2.59862   2.61421   2.62845   2.64280   2.66217
 Alpha virt. eigenvalues --    2.67140   2.69563   2.70038   2.71652   2.73817
 Alpha virt. eigenvalues --    2.74688   2.76918   2.78322   2.80633   2.84089
 Alpha virt. eigenvalues --    2.85688   2.89145   2.91090   2.92280   2.93453
 Alpha virt. eigenvalues --    2.94731   2.95783   2.96738   2.97093   2.98224
 Alpha virt. eigenvalues --    3.01777   3.02314   3.04409   3.05494   3.07202
 Alpha virt. eigenvalues --    3.10352   3.11295   3.16643   3.17624   3.21029
 Alpha virt. eigenvalues --    3.22762   3.23652   3.26021   3.30375   3.35496
 Alpha virt. eigenvalues --    3.37775   3.38632   3.40306   3.41253   3.44249
 Alpha virt. eigenvalues --    3.45411   3.46333   3.57028   3.58502   3.61870
 Alpha virt. eigenvalues --    3.63931   3.66196   3.71549   3.84043   3.85889
 Alpha virt. eigenvalues --    3.86025   3.87826   3.90086   3.90256   3.92895
 Alpha virt. eigenvalues --    3.97277   3.98725   4.00480   4.01810   4.05060
 Alpha virt. eigenvalues --    4.11497   4.20400   4.20901   4.22983   4.24412
 Alpha virt. eigenvalues --    4.25665   4.27553   4.33013   4.35103   4.40743
 Alpha virt. eigenvalues --    4.46931   4.48244   4.54038   4.56904   4.64483
 Alpha virt. eigenvalues --    4.66790   4.70691   4.77150   4.85960   5.00723
 Alpha virt. eigenvalues --    5.20708   5.23469   5.27294   5.30997   5.34741
 Alpha virt. eigenvalues --    5.35330   5.37439   5.38080   5.41785   5.48121
 Alpha virt. eigenvalues --    5.49291   5.51201   5.54789   5.56644   5.61328
 Alpha virt. eigenvalues --    5.64161   5.66148   5.67373   5.68342   5.68865
 Alpha virt. eigenvalues --    5.70676   5.72611   5.74869   5.76807   5.78543
 Alpha virt. eigenvalues --    5.80179   5.81875   5.82410   5.85155   5.87639
 Alpha virt. eigenvalues --    5.96382   5.98343   6.00553   6.00986   6.02682
 Alpha virt. eigenvalues --    6.06298   6.08423   6.08788   6.10338   6.12525
 Alpha virt. eigenvalues --    6.14929   6.16170   6.17563   6.18123   6.22330
 Alpha virt. eigenvalues --    6.23067   6.27390   6.29696   6.30762   6.32760
 Alpha virt. eigenvalues --    6.34600   6.35074   6.44176   6.48159   6.49541
 Alpha virt. eigenvalues --    6.52603   6.55052   6.57508   6.61387   6.63264
 Alpha virt. eigenvalues --    6.65245   6.67519   6.72671   6.73773   6.75827
 Alpha virt. eigenvalues --    6.76728   6.84866   6.88662   6.91747   6.92038
 Alpha virt. eigenvalues --    6.95011   7.01125   7.20800   7.21977   7.24310
 Alpha virt. eigenvalues --    7.25208   7.26861   7.28617   7.29205   7.30343
 Alpha virt. eigenvalues --    7.31056   7.31916   7.32997   7.35219   7.39446
 Alpha virt. eigenvalues --    7.41087   7.44353   7.45300   7.47529   7.48055
 Alpha virt. eigenvalues --    7.49547   7.50704   7.51142   7.52614   7.55793
 Alpha virt. eigenvalues --    7.56496   7.56775   7.59612   7.60820   7.63321
 Alpha virt. eigenvalues --    7.66179   7.67805   7.69182   7.69693   7.70229
 Alpha virt. eigenvalues --    7.78120   7.79924   7.84974   7.86675   7.90778
 Alpha virt. eigenvalues --    7.91425   7.96135   7.98283   8.00253   8.05611
 Alpha virt. eigenvalues --    8.09718   8.12220   8.13934   8.14249   8.14710
 Alpha virt. eigenvalues --    8.17003   8.18327   8.19528   8.22047   8.22406
 Alpha virt. eigenvalues --    8.24207   8.25486   8.25676   8.26599   8.27277
 Alpha virt. eigenvalues --    8.28219   8.29822   8.35451   8.40395   8.44109
 Alpha virt. eigenvalues --    8.47236   8.51321   8.52398   8.54313   8.56405
 Alpha virt. eigenvalues --    8.61194   8.63728   8.65538   8.65697   8.71917
 Alpha virt. eigenvalues --    8.73093   8.73447   8.73838   8.75018   8.75995
 Alpha virt. eigenvalues --    8.82795   8.86874   8.91486   8.95214   9.25366
 Alpha virt. eigenvalues --    9.26677   9.37019   9.39634   9.52476   9.53045
 Alpha virt. eigenvalues --    9.55189   9.55968   9.58864   9.60451   9.63752
 Alpha virt. eigenvalues --    9.65670   9.66662   9.67481   9.80903   9.84525
 Alpha virt. eigenvalues --    9.85707   9.87228   9.88260   9.90558   9.94108
 Alpha virt. eigenvalues --    9.96978  10.07591  10.12037  10.18505  10.19850
 Alpha virt. eigenvalues --   10.26127  10.34155  10.36768  10.38814  10.68724
 Alpha virt. eigenvalues --   10.77306  10.88598  10.94307  11.13973  11.23041
 Alpha virt. eigenvalues --   11.30154  11.31704  11.38308  11.45624  11.54191
 Alpha virt. eigenvalues --   11.56587  11.63068  11.64746  11.74539  11.74876
 Alpha virt. eigenvalues --   11.79166  11.83686  11.87252  11.89032  11.91305
 Alpha virt. eigenvalues --   11.98058  12.16751  12.19606  12.51518  12.52149
 Alpha virt. eigenvalues --   12.58207  12.65600  12.92821  12.99773  13.15937
 Alpha virt. eigenvalues --   13.19121  13.70099  13.72436  13.92494  13.92709
 Alpha virt. eigenvalues --   14.33787  14.48342  16.50854  16.67240  29.00085
 Alpha virt. eigenvalues --   29.02927  48.40523  48.49887 146.46628 146.49249
 Alpha virt. eigenvalues --  251.50093 251.61484
          Condensed to atoms (all electrons):
               1          2          3          4          5          6
     1  O    8.262011   0.228381   0.204275  -0.048231  -0.031468  -0.061971
     2  H    0.228381   0.458808  -0.043862   0.013980  -0.010801  -0.021985
     3  C    0.204275  -0.043862   5.225672   0.392542   0.291311   0.375104
     4  H   -0.048231   0.013980   0.392542   0.541786  -0.049329  -0.049937
     5  H   -0.031468  -0.010801   0.291311  -0.049329   0.764606  -0.224419
     6  H   -0.061971  -0.021985   0.375104  -0.049937  -0.224419   0.858732
     7  O   -0.024126   0.046783  -0.001660  -0.002174  -0.002011   0.006034
     8  H    0.001324   0.000748   0.000113   0.000469  -0.000207  -0.001403
     9  C   -0.006671  -0.019013   0.000771  -0.001147   0.000775   0.004453
    10  H    0.003258  -0.001585  -0.000143   0.000118   0.004493  -0.013449
    11  H   -0.004506  -0.003699  -0.001504  -0.000591  -0.000073   0.004897
    12  H    0.009228   0.007060   0.001572   0.001525  -0.001619  -0.002941
               7          8          9         10         11         12
     1  O   -0.024126   0.001324  -0.006671   0.003258  -0.004506   0.009228
     2  H    0.046783   0.000748  -0.019013  -0.001585  -0.003699   0.007060
     3  C   -0.001660   0.000113   0.000771  -0.000143  -0.001504   0.001572
     4  H   -0.002174   0.000469  -0.001147   0.000118  -0.000591   0.001525
     5  H   -0.002011  -0.000207   0.000775   0.004493  -0.000073  -0.001619
     6  H    0.006034  -0.001403   0.004453  -0.013449   0.004897  -0.002941
     7  O    8.379183   0.187899   0.167425  -0.042893  -0.067319  -0.037538
     8  H    0.187899   0.429707  -0.050612   0.005912  -0.039041   0.020047
     9  C    0.167425  -0.050612   5.259651   0.406534   0.452618   0.195469
    10  H   -0.042893   0.005912   0.406534   0.514424  -0.030361  -0.032829
    11  H   -0.067319  -0.039041   0.452618  -0.030361   0.897996  -0.257886
    12  H   -0.037538   0.020047   0.195469  -0.032829  -0.257886   0.715191
 Mulliken charges:
               1
     1  O   -0.531505
     2  H    0.345184
     3  C   -0.444192
     4  H    0.200988
     5  H    0.258742
     6  H    0.126885
     7  O   -0.609603
     8  H    0.445046
     9  C   -0.410252
    10  H    0.186520
    11  H    0.049467
    12  H    0.382719
 Sum of Mulliken charges =  -0.00000
 Mulliken charges with hydrogens summed into heavy atoms:
               1
     1  O   -0.186321
     3  C    0.142424
     7  O   -0.164557
     9  C    0.208454
 Electronic spatial extent (au):  <R**2>=            566.4380
 Charge=             -0.0000 electrons
 Dipole moment (field-independent basis, Debye):
    X=             -2.7161    Y=              0.5614    Z=              0.7411  Tot=              2.8708
 Quadrupole moment (field-independent basis, Debye-Ang):
   XX=            -21.2720   YY=            -25.2955   ZZ=            -28.3525
   XY=             -0.3655   XZ=              4.0171   YZ=             -2.1311
 Traceless Quadrupole moment (field-independent basis, Debye-Ang):
   XX=              3.7013   YY=             -0.3222   ZZ=             -3.3791
   XY=             -0.3655   XZ=              4.0171   YZ=             -2.1311
 Octapole moment (field-independent basis, Debye-Ang**2):
  XXX=            -10.9502  YYY=              6.5284  ZZZ=             -1.4016  XYY=             -5.3035
  XXY=              3.4094  XXZ=              0.3101  XZZ=             -4.7519  YZZ=              0.6646
  YYZ=             -2.1306  XYZ=              2.2050
 Hexadecapole moment (field-independent basis, Debye-Ang**3):
 XXXX=           -550.3353 YYYY=            -68.6525 ZZZZ=            -70.1080 XXXY=            -17.3551
 XXXZ=              1.0791 YYYX=            -10.2624 YYYZ=             -3.7385 ZZZX=              1.4195
 ZZZY=             -1.1921 XXYY=           -103.5350 XXZZ=           -113.6900 YYZZ=            -23.3559
 XXYZ=             -3.7184 YYXZ=              3.4813 ZZXY=             -1.6067
 N-N= 1.291070657037D+02 E-N=-8.014712217072D+02  KE= 2.305884244872D+02
 PrsmSu:  requested number of processors reduced to:  20 ShMem   1 Linda.
 No NMR shielding tensors so no spin-rotation constants.
 Leave Link  601 at Sat Apr 17 20:58:21 2021, MaxMem=   104857600 cpu:             212.9 elap:               4.8
 (Enter /s/ls4/users/knvvv/bin/g16sse/l801.exe)
 DoSCS=F DFT=T ScalE2(SS,OS)=  1.000000  1.000000
 Range of M.O.s used for correlation:     1   520
 NBasis=   522 NAE=    18 NBE=    18 NFC=     0 NFV=     0
 NROrb=    520 NOA=    18 NOB=    18 NVA=   502 NVB=   502

 **** Warning!!: The largest alpha MO coefficient is  0.17293502D+03

 Leave Link  801 at Sat Apr 17 20:58:21 2021, MaxMem=   104857600 cpu:               3.9 elap:               0.1
 (Enter /s/ls4/users/knvvv/bin/g16sse/l914.exe)
 RHF ground state
 Doing stability rather than CIS.
 Two-electron integrals replicated using symmetry.
 MDV=   104857600 DFT=T DoStab=T Mixed=T DoRPA=F DoScal=F NonHer=F
 Making orbital integer symmetry assigments:
 Orbital symmetries:
       Occupied  (A) (A) (A) (A) (A) (A) (A) (A) (A) (A) (A) (A)
                 (A) (A) (A) (A) (A) (A)
       Virtual   (A) (A) (A) (A) (A) (A) (A) (A) (A) (A) (A) (A)
                 (A) (A) (A) (A) (A) (A) (A) (A) (A) (A) (A) (A)
                 (A) (A) (A) (A) (A) (A) (A) (A) (A) (A) (A) (A)
                 (A) (A) (A) (A) (A) (A) (A) (A) (A) (A) (A) (A)
                 (A) (A) (A) (A) (A) (A) (A) (A) (A) (A) (A) (A)
                 (A) (A) (A) (A) (A) (A) (A) (A) (A) (A) (A) (A)
                 (A) (A) (A) (A) (A) (A) (A) (A) (A) (A) (A) (A)
                 (A) (A) (A) (A) (A) (A) (A) (A) (A) (A) (A) (A)
                 (A) (A) (A) (A) (A) (A) (A) (A) (A) (A) (A) (A)
                 (A) (A) (A) (A) (A) (A) (A) (A) (A) (A) (A) (A)
                 (A) (A) (A) (A) (A) (A) (A) (A) (A) (A) (A) (A)
                 (A) (A) (A) (A) (A) (A) (A) (A) (A) (A) (A) (A)
                 (A) (A) (A) (A) (A) (A) (A) (A) (A) (A) (A) (A)
                 (A) (A) (A) (A) (A) (A) (A) (A) (A) (A) (A) (A)
                 (A) (A) (A) (A) (A) (A) (A) (A) (A) (A) (A) (A)
                 (A) (A) (A) (A) (A) (A) (A) (A) (A) (A) (A) (A)
                 (A) (A) (A) (A) (A) (A) (A) (A) (A) (A) (A) (A)
                 (A) (A) (A) (A) (A) (A) (A) (A) (A) (A) (A) (A)
                 (A) (A) (A) (A) (A) (A) (A) (A) (A) (A) (A) (A)
                 (A) (A) (A) (A) (A) (A) (A) (A) (A) (A) (A) (A)
                 (A) (A) (A) (A) (A) (A) (A) (A) (A) (A) (A) (A)
                 (A) (A) (A) (A) (A) (A) (A) (A) (A) (A) (A) (A)
                 (A) (A) (A) (A) (A) (A) (A) (A) (A) (A) (A) (A)
                 (A) (A) (A) (A) (A) (A) (A) (A) (A) (A) (A) (A)
                 (A) (A) (A) (A) (A) (A) (A) (A) (A) (A) (A) (A)
                 (A) (A) (A) (A) (A) (A) (A) (A) (A) (A) (A) (A)
                 (A) (A) (A) (A) (A) (A) (A) (A) (A) (A) (A) (A)
                 (A) (A) (A) (A) (A) (A) (A) (A) (A) (A) (A) (A)
                 (A) (A) (A) (A) (A) (A) (A) (A) (A) (A) (A) (A)
                 (A) (A) (A) (A) (A) (A) (A) (A) (A) (A) (A) (A)
                 (A) (A) (A) (A) (A) (A) (A) (A) (A) (A) (A) (A)
                 (A) (A) (A) (A) (A) (A) (A) (A) (A) (A) (A) (A)
                 (A) (A) (A) (A) (A) (A) (A) (A) (A) (A) (A) (A)
                 (A) (A) (A) (A) (A) (A) (A) (A) (A) (A) (A) (A)
                 (A) (A) (A) (A) (A) (A) (A) (A) (A) (A) (A) (A)
                 (A) (A) (A) (A) (A) (A) (A) (A) (A) (A) (A) (A)
                 (A) (A) (A) (A) (A) (A) (A) (A) (A) (A) (A) (A)
                 (A) (A) (A) (A) (A) (A) (A) (A) (A) (A) (A) (A)
                 (A) (A) (A) (A) (A) (A) (A) (A) (A) (A) (A) (A)
                 (A) (A) (A) (A) (A) (A) (A) (A) (A) (A) (A) (A)
                 (A) (A) (A) (A) (A) (A) (A) (A) (A) (A) (A) (A)
                 (A) (A) (A) (A) (A) (A) (A) (A) (A) (A)
    24 initial guesses have been made.
 Convergence on wavefunction:    0.001000000000000
 Davidson Disk Diagonalization:  ConvIn= 1.00D-03 SkipCon=T Conv= 1.00D-03.
 Max sub-space:  2000 roots to seek:    24 dimension of matrix:        18072
 Iteration     1 Dimension    24 NMult     0 NNew     24
 Estimated number of processors is:   15
 CISAX will form     1 AO SS matrices at one time.
 NMat=     1 NSing=     1 JSym2X= 0.
 FoFJK:  IHMeth= 1 ICntrl=       0 DoSepK=F KAlg= 0 I1Cent=           0 FoldK=F
 IRaf= 920000000 NMat=       1 IRICut=       1 DoRegI=T DoRafI=F ISym2E= 0 IDoP0=0 IntGTp=1.
 FoFCou: FMM=F IPFlag=           0 FMFlag=      100000 FMFlg1=           0
         NFxFlg=           0 DoJE=F BraDBF=F KetDBF=F FulRan=T
         wScrn=  0.000000 ICntrl=         0 IOpCl=  0 I1Cent=           0 NGrid=           0
         NMat0=    1 NMatS0=      1 NMatT0=    0 NMatD0=    1 NMtDS0=    0 NMtDT0=    0
 Symmetry not used in FoFCou.
 CoulSu:  requested number of processors reduced to:  19 ShMem   1 Linda.
 CalDSu:  requested number of processors reduced to:  45 ShMem   1 Linda.
 NMat=     1 NSing=     1 JSym2X= 0.
 CoulSu:  requested number of processors reduced to:  19 ShMem   1 Linda.
 CalDSu:  requested number of processors reduced to:  45 ShMem   1 Linda.
 NMat=     1 NSing=     1 JSym2X= 0.
 CoulSu:  requested number of processors reduced to:  19 ShMem   1 Linda.
 CalDSu:  requested number of processors reduced to:  45 ShMem   1 Linda.
 NMat=     1 NSing=     1 JSym2X= 0.
 CoulSu:  requested number of processors reduced to:  19 ShMem   1 Linda.
 CalDSu:  requested number of processors reduced to:  45 ShMem   1 Linda.
 NMat=     1 NSing=     1 JSym2X= 0.
 CoulSu:  requested number of processors reduced to:  19 ShMem   1 Linda.
 CalDSu:  requested number of processors reduced to:  45 ShMem   1 Linda.
 NMat=     1 NSing=     1 JSym2X= 0.
 CoulSu:  requested number of processors reduced to:  19 ShMem   1 Linda.
 CalDSu:  requested number of processors reduced to:  45 ShMem   1 Linda.
 NMat=     1 NSing=     1 JSym2X= 0.
 CoulSu:  requested number of processors reduced to:  19 ShMem   1 Linda.
 CalDSu:  requested number of processors reduced to:  45 ShMem   1 Linda.
 NMat=     1 NSing=     1 JSym2X= 0.
 CoulSu:  requested number of processors reduced to:  19 ShMem   1 Linda.
 CalDSu:  requested number of processors reduced to:  45 ShMem   1 Linda.
 NMat=     1 NSing=     1 JSym2X= 0.
 CoulSu:  requested number of processors reduced to:  19 ShMem   1 Linda.
 CalDSu:  requested number of processors reduced to:  45 ShMem   1 Linda.
 NMat=     1 NSing=     1 JSym2X= 0.
 CoulSu:  requested number of processors reduced to:  19 ShMem   1 Linda.
 CalDSu:  requested number of processors reduced to:  45 ShMem   1 Linda.
 NMat=     1 NSing=     1 JSym2X= 0.
 CoulSu:  requested number of processors reduced to:  19 ShMem   1 Linda.
 CalDSu:  requested number of processors reduced to:  45 ShMem   1 Linda.
 NMat=     1 NSing=     1 JSym2X= 0.
 CoulSu:  requested number of processors reduced to:  19 ShMem   1 Linda.
 CalDSu:  requested number of processors reduced to:  45 ShMem   1 Linda.
 NMat=     1 NSing=     0 JSym2X= 0.
 CoulSu:  requested number of processors reduced to:  19 ShMem   1 Linda.
 CalDSu:  requested number of processors reduced to:  45 ShMem   1 Linda.
 NMat=     1 NSing=     0 JSym2X= 0.
 CoulSu:  requested number of processors reduced to:  19 ShMem   1 Linda.
 CalDSu:  requested number of processors reduced to:  45 ShMem   1 Linda.
 NMat=     1 NSing=     0 JSym2X= 0.
 CoulSu:  requested number of processors reduced to:  19 ShMem   1 Linda.
 CalDSu:  requested number of processors reduced to:  45 ShMem   1 Linda.
 NMat=     1 NSing=     0 JSym2X= 0.
 CoulSu:  requested number of processors reduced to:  19 ShMem   1 Linda.
 CalDSu:  requested number of processors reduced to:  45 ShMem   1 Linda.
 NMat=     1 NSing=     0 JSym2X= 0.
 CoulSu:  requested number of processors reduced to:  19 ShMem   1 Linda.
 CalDSu:  requested number of processors reduced to:  45 ShMem   1 Linda.
 NMat=     1 NSing=     0 JSym2X= 0.
 CoulSu:  requested number of processors reduced to:  19 ShMem   1 Linda.
 CalDSu:  requested number of processors reduced to:  45 ShMem   1 Linda.
 NMat=     1 NSing=     0 JSym2X= 0.
 CoulSu:  requested number of processors reduced to:  19 ShMem   1 Linda.
 CalDSu:  requested number of processors reduced to:  45 ShMem   1 Linda.
 NMat=     1 NSing=     0 JSym2X= 0.
 CoulSu:  requested number of processors reduced to:  19 ShMem   1 Linda.
 CalDSu:  requested number of processors reduced to:  45 ShMem   1 Linda.
 NMat=     1 NSing=     0 JSym2X= 0.
 CoulSu:  requested number of processors reduced to:  19 ShMem   1 Linda.
 CalDSu:  requested number of processors reduced to:  45 ShMem   1 Linda.
 NMat=     1 NSing=     0 JSym2X= 0.
 CoulSu:  requested number of processors reduced to:  19 ShMem   1 Linda.
 CalDSu:  requested number of processors reduced to:  45 ShMem   1 Linda.
 NMat=     1 NSing=     0 JSym2X= 0.
 CoulSu:  requested number of processors reduced to:  19 ShMem   1 Linda.
 CalDSu:  requested number of processors reduced to:  45 ShMem   1 Linda.
 NMat=     1 NSing=     0 JSym2X= 0.
 CoulSu:  requested number of processors reduced to:  19 ShMem   1 Linda.
 CalDSu:  requested number of processors reduced to:  45 ShMem   1 Linda.
 New state      1 was old state      2
 Excitation Energies [eV] at current iteration:
 Root      1 :     7.113871127952915
 Root      2 :     7.120053269851774
 Root      3 :     7.522568819582416
 Root      4 :     7.652942469565462
 Root      5 :     7.708885911209389
 Root      6 :     7.739590517746116
 Root      7 :     7.985204554665729
 Root      8 :     8.009628869965795
 Root      9 :     8.137891679985756
 Root     10 :     8.178700947319953
 Root     11 :     8.665018814234353
 Root     12 :     8.707107678675522
 Root     13 :     8.723489705330300
 Root     14 :     8.750569741313354
 Root     15 :     8.751091616718234
 Root     16 :     8.784121926107121
 Root     17 :     8.871002801748165
 Root     18 :     8.950753320305454
 Root     19 :     9.049324706152703
 Root     20 :     9.053182308076948
 Root     21 :     9.057114446080853
 Root     22 :     9.108043805958758
 Root     23 :     9.325447017480780
 Root     24 :     9.417100450395377
 Iteration     2 Dimension    48 NMult    24 NNew     24
 Estimated number of processors is:   15
 CISAX will form     1 AO SS matrices at one time.
 NMat=     1 NSing=     1 JSym2X= 0.
 CoulSu:  requested number of processors reduced to:  19 ShMem   1 Linda.
 CalDSu:  requested number of processors reduced to:  45 ShMem   1 Linda.
 NMat=     1 NSing=     1 JSym2X= 0.
 CoulSu:  requested number of processors reduced to:  19 ShMem   1 Linda.
 CalDSu:  requested number of processors reduced to:  45 ShMem   1 Linda.
 NMat=     1 NSing=     1 JSym2X= 0.
 CoulSu:  requested number of processors reduced to:  19 ShMem   1 Linda.
 CalDSu:  requested number of processors reduced to:  45 ShMem   1 Linda.
 NMat=     1 NSing=     1 JSym2X= 0.
 CoulSu:  requested number of processors reduced to:  19 ShMem   1 Linda.
 CalDSu:  requested number of processors reduced to:  45 ShMem   1 Linda.
 NMat=     1 NSing=     1 JSym2X= 0.
 CoulSu:  requested number of processors reduced to:  19 ShMem   1 Linda.
 CalDSu:  requested number of processors reduced to:  45 ShMem   1 Linda.
 NMat=     1 NSing=     1 JSym2X= 0.
 CoulSu:  requested number of processors reduced to:  19 ShMem   1 Linda.
 CalDSu:  requested number of processors reduced to:  45 ShMem   1 Linda.
 NMat=     1 NSing=     1 JSym2X= 0.
 CoulSu:  requested number of processors reduced to:  19 ShMem   1 Linda.
 CalDSu:  requested number of processors reduced to:  45 ShMem   1 Linda.
 NMat=     1 NSing=     1 JSym2X= 0.
 CoulSu:  requested number of processors reduced to:  19 ShMem   1 Linda.
 CalDSu:  requested number of processors reduced to:  45 ShMem   1 Linda.
 NMat=     1 NSing=     1 JSym2X= 0.
 CoulSu:  requested number of processors reduced to:  19 ShMem   1 Linda.
 CalDSu:  requested number of processors reduced to:  45 ShMem   1 Linda.
 NMat=     1 NSing=     1 JSym2X= 0.
 CoulSu:  requested number of processors reduced to:  19 ShMem   1 Linda.
 CalDSu:  requested number of processors reduced to:  45 ShMem   1 Linda.
 NMat=     1 NSing=     1 JSym2X= 0.
 CoulSu:  requested number of processors reduced to:  19 ShMem   1 Linda.
 CalDSu:  requested number of processors reduced to:  45 ShMem   1 Linda.
 NMat=     1 NSing=     1 JSym2X= 0.
 CoulSu:  requested number of processors reduced to:  19 ShMem   1 Linda.
 CalDSu:  requested number of processors reduced to:  45 ShMem   1 Linda.
 NMat=     1 NSing=     0 JSym2X= 0.
 CoulSu:  requested number of processors reduced to:  19 ShMem   1 Linda.
 CalDSu:  requested number of processors reduced to:  45 ShMem   1 Linda.
 NMat=     1 NSing=     0 JSym2X= 0.
 CoulSu:  requested number of processors reduced to:  19 ShMem   1 Linda.
 CalDSu:  requested number of processors reduced to:  45 ShMem   1 Linda.
 NMat=     1 NSing=     0 JSym2X= 0.
 CoulSu:  requested number of processors reduced to:  19 ShMem   1 Linda.
 CalDSu:  requested number of processors reduced to:  45 ShMem   1 Linda.
 NMat=     1 NSing=     0 JSym2X= 0.
 CoulSu:  requested number of processors reduced to:  19 ShMem   1 Linda.
 CalDSu:  requested number of processors reduced to:  45 ShMem   1 Linda.
 NMat=     1 NSing=     0 JSym2X= 0.
 CoulSu:  requested number of processors reduced to:  19 ShMem   1 Linda.
 CalDSu:  requested number of processors reduced to:  45 ShMem   1 Linda.
 NMat=     1 NSing=     0 JSym2X= 0.
 CoulSu:  requested number of processors reduced to:  19 ShMem   1 Linda.
 CalDSu:  requested number of processors reduced to:  45 ShMem   1 Linda.
 NMat=     1 NSing=     0 JSym2X= 0.
 CoulSu:  requested number of processors reduced to:  19 ShMem   1 Linda.
 CalDSu:  requested number of processors reduced to:  45 ShMem   1 Linda.
 NMat=     1 NSing=     0 JSym2X= 0.
 CoulSu:  requested number of processors reduced to:  19 ShMem   1 Linda.
 CalDSu:  requested number of processors reduced to:  45 ShMem   1 Linda.
 NMat=     1 NSing=     0 JSym2X= 0.
 CoulSu:  requested number of processors reduced to:  19 ShMem   1 Linda.
 CalDSu:  requested number of processors reduced to:  45 ShMem   1 Linda.
 NMat=     1 NSing=     0 JSym2X= 0.
 CoulSu:  requested number of processors reduced to:  19 ShMem   1 Linda.
 CalDSu:  requested number of processors reduced to:  45 ShMem   1 Linda.
 NMat=     1 NSing=     0 JSym2X= 0.
 CoulSu:  requested number of processors reduced to:  19 ShMem   1 Linda.
 CalDSu:  requested number of processors reduced to:  45 ShMem   1 Linda.
 NMat=     1 NSing=     0 JSym2X= 0.
 CoulSu:  requested number of processors reduced to:  19 ShMem   1 Linda.
 CalDSu:  requested number of processors reduced to:  45 ShMem   1 Linda.
 Root      1 not converged, maximum delta is    0.220525135940354
 Excitation Energies [eV] at current iteration:
 Root      1 :     6.826096902573554   Change is   -0.287774225379360
 Root      2 :     6.910920167263830   Change is   -0.611648652318586
 Root      3 :     6.982819794366156   Change is   -0.137233475485619
 Root      4 :     7.356425188825321   Change is   -0.296517280740140
 Root      5 :     7.543901233146589   Change is   -0.164984678062800
 Root      6 :     7.650258269009733   Change is   -0.089332248736384
 Root      7 :     7.852567311840973   Change is   -0.132637242824756
 Root      8 :     7.932981606870131   Change is   -0.076647263095664
 Root      9 :     7.934321193463147   Change is   -0.203570486522609
 Root     10 :     8.072722247275607   Change is   -0.105978700044346
 Root     11 :     8.274855744169718   Change is   -0.390163070064635
 Root     12 :     8.343524173185287   Change is   -0.407567443532948
 Root     13 :     8.360498718628191   Change is   -0.346608960047329
 Root     14 :     8.508676732675811   Change is   -0.214812972654490
 Root     15 :     8.526441176381551   Change is   -0.257680749725569
 Root     16 :     8.563844514066238   Change is   -0.186725227247116
 Root     17 :     8.703455678123614   Change is   -0.167547123624552
 Root     18 :     8.791486289162743   Change is   -0.257838416989961
 Root     19 :     8.822544983497403   Change is   -0.128208336808050
 Root     20 :     8.915735069971204   Change is   -0.137447238105745
 Root     21 :     8.929260530617961   Change is   -0.178783275340796
 Root     22 :     8.946877680962388   Change is   -0.110236765118465
 Root     23 :     9.003299945848022   Change is   -0.322147071632758
 Root     24 :     9.271126535058720   Change is   -0.145973915336657
 Iteration     3 Dimension    54 NMult    48 NNew      6
 Estimated number of processors is:   15
 CISAX will form     1 AO SS matrices at one time.
 NMat=     1 NSing=     1 JSym2X= 0.
 CoulSu:  requested number of processors reduced to:  19 ShMem   1 Linda.
 CalDSu:  requested number of processors reduced to:  45 ShMem   1 Linda.
 NMat=     1 NSing=     1 JSym2X= 0.
 CoulSu:  requested number of processors reduced to:  19 ShMem   1 Linda.
 CalDSu:  requested number of processors reduced to:  45 ShMem   1 Linda.
 NMat=     1 NSing=     1 JSym2X= 0.
 CoulSu:  requested number of processors reduced to:  19 ShMem   1 Linda.
 CalDSu:  requested number of processors reduced to:  45 ShMem   1 Linda.
 NMat=     1 NSing=     0 JSym2X= 0.
 CoulSu:  requested number of processors reduced to:  19 ShMem   1 Linda.
 CalDSu:  requested number of processors reduced to:  45 ShMem   1 Linda.
 NMat=     1 NSing=     0 JSym2X= 0.
 CoulSu:  requested number of processors reduced to:  19 ShMem   1 Linda.
 CalDSu:  requested number of processors reduced to:  45 ShMem   1 Linda.
 NMat=     1 NSing=     0 JSym2X= 0.
 CoulSu:  requested number of processors reduced to:  19 ShMem   1 Linda.
 CalDSu:  requested number of processors reduced to:  45 ShMem   1 Linda.
 Root      1 not converged, maximum delta is    0.050938128884995
 Excitation Energies [eV] at current iteration:
 Root      1 :     6.769245781515012   Change is   -0.056851121058543
 Root      2 :     6.833149395600851   Change is   -0.077770771662979
 Root      3 :     6.971974936590912   Change is   -0.010844857775244
 Root      4 :     7.328644404504499   Change is   -0.027780784320822
 Root      5 :     7.504243098412092   Change is   -0.039658134734498
 Root      6 :     7.644424172059915   Change is   -0.005834096949818
 Iteration     4 Dimension    60 NMult    54 NNew      6
 Estimated number of processors is:   15
 CISAX will form     1 AO SS matrices at one time.
 NMat=     1 NSing=     1 JSym2X= 0.
 CoulSu:  requested number of processors reduced to:  19 ShMem   1 Linda.
 CalDSu:  requested number of processors reduced to:  45 ShMem   1 Linda.
 NMat=     1 NSing=     1 JSym2X= 0.
 CoulSu:  requested number of processors reduced to:  19 ShMem   1 Linda.
 CalDSu:  requested number of processors reduced to:  45 ShMem   1 Linda.
 NMat=     1 NSing=     1 JSym2X= 0.
 CoulSu:  requested number of processors reduced to:  19 ShMem   1 Linda.
 CalDSu:  requested number of processors reduced to:  45 ShMem   1 Linda.
 NMat=     1 NSing=     0 JSym2X= 0.
 CoulSu:  requested number of processors reduced to:  19 ShMem   1 Linda.
 CalDSu:  requested number of processors reduced to:  45 ShMem   1 Linda.
 NMat=     1 NSing=     0 JSym2X= 0.
 CoulSu:  requested number of processors reduced to:  19 ShMem   1 Linda.
 CalDSu:  requested number of processors reduced to:  45 ShMem   1 Linda.
 NMat=     1 NSing=     0 JSym2X= 0.
 CoulSu:  requested number of processors reduced to:  19 ShMem   1 Linda.
 CalDSu:  requested number of processors reduced to:  45 ShMem   1 Linda.
 Root      1 not converged, maximum delta is    0.004396163399317
 Excitation Energies [eV] at current iteration:
 Root      1 :     6.764230461413568   Change is   -0.005015320101443
 Root      2 :     6.825861008718657   Change is   -0.007288386882195
 Root      3 :     6.970187488097081   Change is   -0.001787448493831
 Root      4 :     7.324635192228841   Change is   -0.004009212275659
 Root      5 :     7.499917746876653   Change is   -0.004325351535439
 Root      6 :     7.643657385130282   Change is   -0.000766786929633
 Iteration     5 Dimension    66 NMult    60 NNew      6
 Estimated number of processors is:   15
 CISAX will form     1 AO SS matrices at one time.
 NMat=     1 NSing=     1 JSym2X= 0.
 CoulSu:  requested number of processors reduced to:  19 ShMem   1 Linda.
 CalDSu:  requested number of processors reduced to:  45 ShMem   1 Linda.
 NMat=     1 NSing=     1 JSym2X= 0.
 CoulSu:  requested number of processors reduced to:  19 ShMem   1 Linda.
 CalDSu:  requested number of processors reduced to:  45 ShMem   1 Linda.
 NMat=     1 NSing=     1 JSym2X= 0.
 CoulSu:  requested number of processors reduced to:  19 ShMem   1 Linda.
 CalDSu:  requested number of processors reduced to:  45 ShMem   1 Linda.
 NMat=     1 NSing=     0 JSym2X= 0.
 CoulSu:  requested number of processors reduced to:  19 ShMem   1 Linda.
 CalDSu:  requested number of processors reduced to:  45 ShMem   1 Linda.
 NMat=     1 NSing=     0 JSym2X= 0.
 CoulSu:  requested number of processors reduced to:  19 ShMem   1 Linda.
 CalDSu:  requested number of processors reduced to:  45 ShMem   1 Linda.
 NMat=     1 NSing=     0 JSym2X= 0.
 CoulSu:  requested number of processors reduced to:  19 ShMem   1 Linda.
 CalDSu:  requested number of processors reduced to:  45 ShMem   1 Linda.
 Root      1 has converged.
 Excitation Energies [eV] at current iteration:
 Root      1 :     6.763834657183730   Change is   -0.000395804229838
 Root      2 :     6.825126805382228   Change is   -0.000734203336429
 Root      3 :     6.969844466357691   Change is   -0.000343021739390
 Root      4 :     7.323936265371965   Change is   -0.000698926856875
 Root      5 :     7.499504880794755   Change is   -0.000412866081897
 Root      6 :     7.643576490861405   Change is   -0.000080894268877
 Convergence achieved on expansion vectors.
 ***********************************************************************
 Stability analysis using <AA,BB:AA,BB> singles matrix:
 ***********************************************************************
 1PDM for each excited state written to RWF  633
 Ground to excited state transition densities written to RWF  633

 Eigenvectors of the stability matrix:
 
 Eigenvector   1:      Triplet-A    Eigenvalue= 0.2485664  <S**2>=2.000
      17 -> 19         0.20377
      18 -> 19         0.50612
      18 -> 21         0.22384
      18 -> 22         0.16182
      18 -> 23        -0.15014
      18 -> 24         0.10386
      18 -> 27        -0.11811
      18 -> 29        -0.11466
 The wavefunction is stable under the perturbations considered.
 Leave Link  914 at Sat Apr 17 21:31:07 2021, MaxMem=   104857600 cpu:           69345.3 elap:            1966.0
 (Enter /s/ls4/users/knvvv/bin/g16sse/l508.exe)
 The wavefunction is already stable.
 Leave Link  508 at Sat Apr 17 21:31:08 2021, MaxMem=   104857600 cpu:               2.2 elap:               0.1
 (Enter /s/ls4/users/knvvv/bin/g16sse/l601.exe)
 Copying SCF densities to generalized density rwf, IOpCl= 0 IROHF=0.

 **********************************************************************

            Population analysis using the SCF density.

 **********************************************************************

 Orbital symmetries:
       Occupied  (A) (A) (A) (A) (A) (A) (A) (A) (A) (A) (A) (A)
                 (A) (A) (A) (A) (A) (A)
       Virtual   (A) (A) (A) (A) (A) (A) (A) (A) (A) (A) (A) (A)
                 (A) (A) (A) (A) (A) (A) (A) (A) (A) (A) (A) (A)
                 (A) (A) (A) (A) (A) (A) (A) (A) (A) (A) (A) (A)
                 (A) (A) (A) (A) (A) (A) (A) (A) (A) (A) (A) (A)
                 (A) (A) (A) (A) (A) (A) (A) (A) (A) (A) (A) (A)
                 (A) (A) (A) (A) (A) (A) (A) (A) (A) (A) (A) (A)
                 (A) (A) (A) (A) (A) (A) (A) (A) (A) (A) (A) (A)
                 (A) (A) (A) (A) (A) (A) (A) (A) (A) (A) (A) (A)
                 (A) (A) (A) (A) (A) (A) (A) (A) (A) (A) (A) (A)
                 (A) (A) (A) (A) (A) (A) (A) (A) (A) (A) (A) (A)
                 (A) (A) (A) (A) (A) (A) (A) (A) (A) (A) (A) (A)
                 (A) (A) (A) (A) (A) (A) (A) (A) (A) (A) (A) (A)
                 (A) (A) (A) (A) (A) (A) (A) (A) (A) (A) (A) (A)
                 (A) (A) (A) (A) (A) (A) (A) (A) (A) (A) (A) (A)
                 (A) (A) (A) (A) (A) (A) (A) (A) (A) (A) (A) (A)
                 (A) (A) (A) (A) (A) (A) (A) (A) (A) (A) (A) (A)
                 (A) (A) (A) (A) (A) (A) (A) (A) (A) (A) (A) (A)
                 (A) (A) (A) (A) (A) (A) (A) (A) (A) (A) (A) (A)
                 (A) (A) (A) (A) (A) (A) (A) (A) (A) (A) (A) (A)
                 (A) (A) (A) (A) (A) (A) (A) (A) (A) (A) (A) (A)
                 (A) (A) (A) (A) (A) (A) (A) (A) (A) (A) (A) (A)
                 (A) (A) (A) (A) (A) (A) (A) (A) (A) (A) (A) (A)
                 (A) (A) (A) (A) (A) (A) (A) (A) (A) (A) (A) (A)
                 (A) (A) (A) (A) (A) (A) (A) (A) (A) (A) (A) (A)
                 (A) (A) (A) (A) (A) (A) (A) (A) (A) (A) (A) (A)
                 (A) (A) (A) (A) (A) (A) (A) (A) (A) (A) (A) (A)
                 (A) (A) (A) (A) (A) (A) (A) (A) (A) (A) (A) (A)
                 (A) (A) (A) (A) (A) (A) (A) (A) (A) (A) (A) (A)
                 (A) (A) (A) (A) (A) (A) (A) (A) (A) (A) (A) (A)
                 (A) (A) (A) (A) (A) (A) (A) (A) (A) (A) (A) (A)
                 (A) (A) (A) (A) (A) (A) (A) (A) (A) (A) (A) (A)
                 (A) (A) (A) (A) (A) (A) (A) (A) (A) (A) (A) (A)
                 (A) (A) (A) (A) (A) (A) (A) (A) (A) (A) (A) (A)
                 (A) (A) (A) (A) (A) (A) (A) (A) (A) (A) (A) (A)
                 (A) (A) (A) (A) (A) (A) (A) (A) (A) (A) (A) (A)
                 (A) (A) (A) (A) (A) (A) (A) (A) (A) (A) (A) (A)
                 (A) (A) (A) (A) (A) (A) (A) (A) (A) (A) (A) (A)
                 (A) (A) (A) (A) (A) (A) (A) (A) (A) (A) (A) (A)
                 (A) (A) (A) (A) (A) (A) (A) (A) (A) (A) (A) (A)
                 (A) (A) (A) (A) (A) (A) (A) (A) (A) (A) (A) (A)
                 (A) (A) (A) (A) (A) (A) (A) (A) (A) (A) (A) (A)
                 (A) (A) (A) (A) (A) (A) (A) (A) (A) (A)
 The electronic state is 1-A.
 Alpha  occ. eigenvalues --  -19.64999 -19.59768 -10.59406 -10.56246  -1.16663
 Alpha  occ. eigenvalues --   -1.11824  -0.79411  -0.75721  -0.60960  -0.56857
 Alpha  occ. eigenvalues --   -0.53325  -0.51708  -0.49850  -0.48019  -0.43527
 Alpha  occ. eigenvalues --   -0.39357  -0.37478  -0.33340
 Alpha virt. eigenvalues --   -0.00346   0.02126   0.02409   0.03750   0.05658
 Alpha virt. eigenvalues --    0.06408   0.06789   0.07948   0.08674   0.10922
 Alpha virt. eigenvalues --    0.11457   0.12826   0.13335   0.13900   0.15187
 Alpha virt. eigenvalues --    0.16095   0.17374   0.17840   0.18864   0.18991
 Alpha virt. eigenvalues --    0.19673   0.20725   0.21328   0.21609   0.22095
 Alpha virt. eigenvalues --    0.22927   0.23739   0.24494   0.25251   0.26020
 Alpha virt. eigenvalues --    0.26757   0.27484   0.27891   0.28147   0.28874
 Alpha virt. eigenvalues --    0.29590   0.29948   0.30581   0.30846   0.31485
 Alpha virt. eigenvalues --    0.32314   0.32795   0.32890   0.33523   0.34539
 Alpha virt. eigenvalues --    0.35623   0.35651   0.37061   0.37316   0.38388
 Alpha virt. eigenvalues --    0.39285   0.39506   0.40093   0.41104   0.41611
 Alpha virt. eigenvalues --    0.42776   0.43664   0.45010   0.47141   0.48280
 Alpha virt. eigenvalues --    0.49016   0.50019   0.51036   0.51934   0.53043
 Alpha virt. eigenvalues --    0.54082   0.54887   0.56207   0.56500   0.57499
 Alpha virt. eigenvalues --    0.58250   0.60149   0.61060   0.62944   0.63436
 Alpha virt. eigenvalues --    0.65166   0.65873   0.67880   0.69999   0.70674
 Alpha virt. eigenvalues --    0.71659   0.72549   0.74329   0.74923   0.77160
 Alpha virt. eigenvalues --    0.78489   0.81485   0.82395   0.83020   0.84334
 Alpha virt. eigenvalues --    0.85515   0.86604   0.87648   0.88357   0.89634
 Alpha virt. eigenvalues --    0.90307   0.91099   0.92957   0.93730   0.97445
 Alpha virt. eigenvalues --    0.98647   0.99450   1.00713   1.04817   1.06961
 Alpha virt. eigenvalues --    1.07555   1.08617   1.11451   1.11695   1.13681
 Alpha virt. eigenvalues --    1.14415   1.15065   1.17787   1.18495   1.19642
 Alpha virt. eigenvalues --    1.20307   1.22274   1.24433   1.25421   1.26790
 Alpha virt. eigenvalues --    1.28900   1.29313   1.31534   1.32342   1.33451
 Alpha virt. eigenvalues --    1.38969   1.43146   1.44818   1.45388   1.47147
 Alpha virt. eigenvalues --    1.47948   1.48767   1.49696   1.52337   1.56624
 Alpha virt. eigenvalues --    1.60012   1.63773   1.64718   1.67435   1.70937
 Alpha virt. eigenvalues --    1.75229   1.82618   1.84967   1.86042   1.88756
 Alpha virt. eigenvalues --    1.91035   1.92205   1.94312   1.95920   1.96191
 Alpha virt. eigenvalues --    1.97383   1.98366   1.98766   2.00881   2.01786
 Alpha virt. eigenvalues --    2.03016   2.03940   2.04971   2.07016   2.07494
 Alpha virt. eigenvalues --    2.09569   2.12764   2.14065   2.15231   2.18599
 Alpha virt. eigenvalues --    2.20045   2.22481   2.22869   2.24226   2.26073
 Alpha virt. eigenvalues --    2.29057   2.31098   2.32660   2.34023   2.35038
 Alpha virt. eigenvalues --    2.37178   2.39880   2.42731   2.44301   2.45949
 Alpha virt. eigenvalues --    2.46662   2.49890   2.54514   2.55023   2.57047
 Alpha virt. eigenvalues --    2.59862   2.61421   2.62845   2.64280   2.66217
 Alpha virt. eigenvalues --    2.67140   2.69563   2.70038   2.71652   2.73817
 Alpha virt. eigenvalues --    2.74688   2.76918   2.78322   2.80633   2.84089
 Alpha virt. eigenvalues --    2.85688   2.89145   2.91090   2.92280   2.93453
 Alpha virt. eigenvalues --    2.94731   2.95783   2.96738   2.97093   2.98224
 Alpha virt. eigenvalues --    3.01777   3.02314   3.04409   3.05494   3.07202
 Alpha virt. eigenvalues --    3.10352   3.11295   3.16643   3.17624   3.21029
 Alpha virt. eigenvalues --    3.22762   3.23652   3.26021   3.30375   3.35496
 Alpha virt. eigenvalues --    3.37775   3.38632   3.40306   3.41253   3.44249
 Alpha virt. eigenvalues --    3.45411   3.46333   3.57028   3.58502   3.61870
 Alpha virt. eigenvalues --    3.63931   3.66196   3.71549   3.84043   3.85889
 Alpha virt. eigenvalues --    3.86025   3.87826   3.90086   3.90256   3.92895
 Alpha virt. eigenvalues --    3.97277   3.98725   4.00480   4.01810   4.05060
 Alpha virt. eigenvalues --    4.11497   4.20400   4.20901   4.22983   4.24412
 Alpha virt. eigenvalues --    4.25665   4.27553   4.33013   4.35103   4.40743
 Alpha virt. eigenvalues --    4.46931   4.48244   4.54038   4.56904   4.64483
 Alpha virt. eigenvalues --    4.66790   4.70691   4.77150   4.85960   5.00723
 Alpha virt. eigenvalues --    5.20708   5.23469   5.27294   5.30997   5.34741
 Alpha virt. eigenvalues --    5.35330   5.37439   5.38080   5.41785   5.48121
 Alpha virt. eigenvalues --    5.49291   5.51201   5.54789   5.56644   5.61328
 Alpha virt. eigenvalues --    5.64161   5.66148   5.67373   5.68342   5.68865
 Alpha virt. eigenvalues --    5.70676   5.72611   5.74869   5.76807   5.78543
 Alpha virt. eigenvalues --    5.80179   5.81875   5.82410   5.85155   5.87639
 Alpha virt. eigenvalues --    5.96382   5.98343   6.00553   6.00986   6.02682
 Alpha virt. eigenvalues --    6.06298   6.08423   6.08788   6.10338   6.12525
 Alpha virt. eigenvalues --    6.14929   6.16170   6.17563   6.18123   6.22330
 Alpha virt. eigenvalues --    6.23067   6.27390   6.29696   6.30762   6.32760
 Alpha virt. eigenvalues --    6.34600   6.35074   6.44176   6.48159   6.49541
 Alpha virt. eigenvalues --    6.52603   6.55052   6.57508   6.61387   6.63264
 Alpha virt. eigenvalues --    6.65245   6.67519   6.72671   6.73773   6.75827
 Alpha virt. eigenvalues --    6.76728   6.84866   6.88662   6.91747   6.92038
 Alpha virt. eigenvalues --    6.95011   7.01125   7.20800   7.21977   7.24310
 Alpha virt. eigenvalues --    7.25208   7.26861   7.28617   7.29205   7.30343
 Alpha virt. eigenvalues --    7.31056   7.31916   7.32997   7.35219   7.39446
 Alpha virt. eigenvalues --    7.41087   7.44353   7.45300   7.47529   7.48055
 Alpha virt. eigenvalues --    7.49547   7.50704   7.51142   7.52614   7.55793
 Alpha virt. eigenvalues --    7.56496   7.56775   7.59612   7.60820   7.63321
 Alpha virt. eigenvalues --    7.66179   7.67805   7.69182   7.69693   7.70229
 Alpha virt. eigenvalues --    7.78120   7.79924   7.84974   7.86675   7.90778
 Alpha virt. eigenvalues --    7.91425   7.96135   7.98283   8.00253   8.05611
 Alpha virt. eigenvalues --    8.09718   8.12220   8.13934   8.14249   8.14710
 Alpha virt. eigenvalues --    8.17003   8.18327   8.19528   8.22047   8.22406
 Alpha virt. eigenvalues --    8.24207   8.25486   8.25676   8.26599   8.27277
 Alpha virt. eigenvalues --    8.28219   8.29822   8.35451   8.40395   8.44109
 Alpha virt. eigenvalues --    8.47236   8.51321   8.52398   8.54313   8.56405
 Alpha virt. eigenvalues --    8.61194   8.63728   8.65538   8.65697   8.71917
 Alpha virt. eigenvalues --    8.73093   8.73447   8.73838   8.75018   8.75995
 Alpha virt. eigenvalues --    8.82795   8.86874   8.91486   8.95214   9.25366
 Alpha virt. eigenvalues --    9.26677   9.37019   9.39634   9.52476   9.53045
 Alpha virt. eigenvalues --    9.55189   9.55968   9.58864   9.60451   9.63752
 Alpha virt. eigenvalues --    9.65670   9.66662   9.67481   9.80903   9.84525
 Alpha virt. eigenvalues --    9.85707   9.87228   9.88260   9.90558   9.94108
 Alpha virt. eigenvalues --    9.96978  10.07591  10.12037  10.18505  10.19850
 Alpha virt. eigenvalues --   10.26127  10.34155  10.36768  10.38814  10.68724
 Alpha virt. eigenvalues --   10.77306  10.88598  10.94307  11.13973  11.23041
 Alpha virt. eigenvalues --   11.30154  11.31704  11.38308  11.45624  11.54191
 Alpha virt. eigenvalues --   11.56587  11.63068  11.64746  11.74539  11.74876
 Alpha virt. eigenvalues --   11.79166  11.83686  11.87252  11.89032  11.91305
 Alpha virt. eigenvalues --   11.98058  12.16751  12.19606  12.51518  12.52149
 Alpha virt. eigenvalues --   12.58207  12.65600  12.92821  12.99773  13.15937
 Alpha virt. eigenvalues --   13.19121  13.70099  13.72436  13.92494  13.92709
 Alpha virt. eigenvalues --   14.33787  14.48342  16.50854  16.67240  29.00085
 Alpha virt. eigenvalues --   29.02927  48.40523  48.49887 146.46628 146.49249
 Alpha virt. eigenvalues --  251.50093 251.61484
          Condensed to atoms (all electrons):
               1          2          3          4          5          6
     1  O    8.262011   0.228381   0.204275  -0.048231  -0.031468  -0.061971
     2  H    0.228381   0.458808  -0.043862   0.013980  -0.010801  -0.021985
     3  C    0.204275  -0.043862   5.225672   0.392542   0.291311   0.375104
     4  H   -0.048231   0.013980   0.392542   0.541786  -0.049329  -0.049937
     5  H   -0.031468  -0.010801   0.291311  -0.049329   0.764606  -0.224419
     6  H   -0.061971  -0.021985   0.375104  -0.049937  -0.224419   0.858732
     7  O   -0.024126   0.046783  -0.001660  -0.002174  -0.002011   0.006034
     8  H    0.001324   0.000748   0.000113   0.000469  -0.000207  -0.001403
     9  C   -0.006671  -0.019013   0.000771  -0.001147   0.000775   0.004453
    10  H    0.003258  -0.001585  -0.000143   0.000118   0.004493  -0.013449
    11  H   -0.004506  -0.003699  -0.001504  -0.000591  -0.000073   0.004897
    12  H    0.009228   0.007060   0.001572   0.001525  -0.001619  -0.002941
               7          8          9         10         11         12
     1  O   -0.024126   0.001324  -0.006671   0.003258  -0.004506   0.009228
     2  H    0.046783   0.000748  -0.019013  -0.001585  -0.003699   0.007060
     3  C   -0.001660   0.000113   0.000771  -0.000143  -0.001504   0.001572
     4  H   -0.002174   0.000469  -0.001147   0.000118  -0.000591   0.001525
     5  H   -0.002011  -0.000207   0.000775   0.004493  -0.000073  -0.001619
     6  H    0.006034  -0.001403   0.004453  -0.013449   0.004897  -0.002941
     7  O    8.379183   0.187899   0.167425  -0.042893  -0.067319  -0.037538
     8  H    0.187899   0.429707  -0.050612   0.005912  -0.039041   0.020047
     9  C    0.167425  -0.050612   5.259651   0.406534   0.452618   0.195469
    10  H   -0.042893   0.005912   0.406534   0.514424  -0.030361  -0.032829
    11  H   -0.067319  -0.039041   0.452618  -0.030361   0.897996  -0.257886
    12  H   -0.037538   0.020047   0.195469  -0.032829  -0.257886   0.715191
 Mulliken charges:
               1
     1  O   -0.531505
     2  H    0.345184
     3  C   -0.444192
     4  H    0.200988
     5  H    0.258742
     6  H    0.126885
     7  O   -0.609603
     8  H    0.445046
     9  C   -0.410252
    10  H    0.186520
    11  H    0.049467
    12  H    0.382719
 Sum of Mulliken charges =  -0.00000
 Mulliken charges with hydrogens summed into heavy atoms:
               1
     1  O   -0.186321
     3  C    0.142424
     7  O   -0.164557
     9  C    0.208454
 Electronic spatial extent (au):  <R**2>=            566.4380
 Charge=             -0.0000 electrons
 Dipole moment (field-independent basis, Debye):
    X=             -2.7161    Y=              0.5614    Z=              0.7411  Tot=              2.8708
 Quadrupole moment (field-independent basis, Debye-Ang):
   XX=            -21.2720   YY=            -25.2955   ZZ=            -28.3525
   XY=             -0.3655   XZ=              4.0171   YZ=             -2.1311
 Traceless Quadrupole moment (field-independent basis, Debye-Ang):
   XX=              3.7013   YY=             -0.3222   ZZ=             -3.3791
   XY=             -0.3655   XZ=              4.0171   YZ=             -2.1311
 Octapole moment (field-independent basis, Debye-Ang**2):
  XXX=            -10.9502  YYY=              6.5284  ZZZ=             -1.4016  XYY=             -5.3035
  XXY=              3.4094  XXZ=              0.3101  XZZ=             -4.7519  YZZ=              0.6646
  YYZ=             -2.1306  XYZ=              2.2050
 Hexadecapole moment (field-independent basis, Debye-Ang**3):
 XXXX=           -550.3353 YYYY=            -68.6525 ZZZZ=            -70.1080 XXXY=            -17.3551
 XXXZ=              1.0791 YYYX=            -10.2624 YYYZ=             -3.7385 ZZZX=              1.4195
 ZZZY=             -1.1921 XXYY=           -103.5350 XXZZ=           -113.6900 YYZZ=            -23.3559
 XXYZ=             -3.7184 YYXZ=              3.4813 ZZXY=             -1.6067
 N-N= 1.291070657037D+02 E-N=-8.014712217072D+02  KE= 2.305884244872D+02
 PrsmSu:  requested number of processors reduced to:  20 ShMem   1 Linda.
 No NMR shielding tensors so no spin-rotation constants.
 Leave Link  601 at Sat Apr 17 21:31:12 2021, MaxMem=   104857600 cpu:             222.9 elap:               4.9
 (Enter /s/ls4/users/knvvv/bin/g16sse/l9999.exe)

 Test job not archived.
 1\1\GINC-N303\Stability\RM062X\Gen\C2H8O2\KNVVV\17-Apr-2021\0\\#P M062
 X/GEN Integral=UltraFineGrid SCF=NoSymm Stable=(RExt, Opt) IOp(1/33=1)
 \\Database calculations.\\0,1\O,0,-0.636134928,-0.023282411,0.28059932
 1\H,0,0.308097372,-0.047078748,0.076463691\C,0,-1.152065407,-1.3112877
 83,0.015259549\H,0,-2.209945023,-1.296265392,0.263955863\H,0,-1.056610
 24,-1.592670859,-1.036190606\H,0,-0.674835746,-2.086272765,0.620511449
 \O,0,2.241244009,-0.123337749,-0.013537808\H,0,2.710033319,0.491046775
 ,-0.583203762\C,0,2.750077935,0.033681189,1.308179516\H,0,2.196508855,
 -0.654515238,1.938310396\H,0,3.809074037,-0.21675771,1.364902657\H,0,2
 .597638297,1.044375242,1.686072062\\Version=ES64L-G16RevA.03\State=1-A
 \HF=-231.4650826\RMSD=6.857e-09\Dipole=1.1292098,-0.0235848,0.0046864\
 Quadrupole=0.9383089,-0.8120605,-0.1262483,4.1191622,0.3208553,-0.7915
 817\PG=C01 [X(C2H8O2)]\\@


 TO BEHOLD HARMS OF OUR OWN HANDS DOING,
 WHERE NONE BESIDE US WROUGHT,
 CAUSES SHARP RUING...

                                         SOPHOCLES
 Job cpu time:       0 days 21 hours 16 minutes 26.9 seconds.
 Elapsed time:       0 days  0 hours 36 minutes 28.2 seconds.
 File lengths (MBytes):  RWF=    469 Int=      0 D2E=      0 Chk=     31 Scr=      1
 Normal termination of Gaussian 16 at Sat Apr 17 21:31:13 2021.
