 Entering Gaussian System, Link 0=/s/ls4/users/knvvv/bin/g16sse/g16
 Input=data/database/M062X--def2-QZVPPD--158_clo_W4-11.gjf
 Output=data/database/M062X--def2-QZVPPD--158_clo_W4-11.log
 Initial command:
 /s/ls4/users/knvvv/bin/g16sse/l1.exe "/s/ls4/users/knvvv/bin/scratch/Gau-14930.inp" -scrdir="/s/ls4/users/knvvv/bin/scratch/"
 Entering Link 1 = /s/ls4/users/knvvv/bin/g16sse/l1.exe PID=     14931.
  
 Copyright (c) 1988,1990,1992,1993,1995,1998,2003,2009,2016,
            Gaussian, Inc.  All Rights Reserved.
  
 This is part of the Gaussian(R) 16 program.  It is based on
 the Gaussian(R) 09 system (copyright 2009, Gaussian, Inc.),
 the Gaussian(R) 03 system (copyright 2003, Gaussian, Inc.),
 the Gaussian(R) 98 system (copyright 1998, Gaussian, Inc.),
 the Gaussian(R) 94 system (copyright 1995, Gaussian, Inc.),
 the Gaussian 92(TM) system (copyright 1992, Gaussian, Inc.),
 the Gaussian 90(TM) system (copyright 1990, Gaussian, Inc.),
 the Gaussian 88(TM) system (copyright 1988, Gaussian, Inc.),
 the Gaussian 86(TM) system (copyright 1986, Carnegie Mellon
 University), and the Gaussian 82(TM) system (copyright 1983,
 Carnegie Mellon University). Gaussian is a federally registered
 trademark of Gaussian, Inc.
  
 This software contains proprietary and confidential information,
 including trade secrets, belonging to Gaussian, Inc.
  
 This software is provided under written license and may be
 used, copied, transmitted, or stored only in accord with that
 written license.
  
 The following legend is applicable only to US Government
 contracts under FAR:
  
                    RESTRICTED RIGHTS LEGEND
  
 Use, reproduction and disclosure by the US Government is
 subject to restrictions as set forth in subparagraphs (a)
 and (c) of the Commercial Computer Software - Restricted
 Rights clause in FAR 52.227-19.
  
 Gaussian, Inc.
 340 Quinnipiac St., Bldg. 40, Wallingford CT 06492
  
  
 ---------------------------------------------------------------
 Warning -- This program may not be used in any manner that
 competes with the business of Gaussian, Inc. or will provide
 assistance to any competitor of Gaussian, Inc.  The licensee
 of this program is prohibited from giving any competitor of
 Gaussian, Inc. access to this program.  By using this program,
 the user acknowledges that Gaussian, Inc. is engaged in the
 business of creating and licensing software in the field of
 computational chemistry and represents and warrants to the
 licensee that it is not a competitor of Gaussian, Inc. and that
 it will not use this program in any manner prohibited above.
 ---------------------------------------------------------------
  

 Cite this work as:
 Gaussian 16, Revision A.03,
 M. J. Frisch, G. W. Trucks, H. B. Schlegel, G. E. Scuseria, 
 M. A. Robb, J. R. Cheeseman, G. Scalmani, V. Barone, 
 G. A. Petersson, H. Nakatsuji, X. Li, M. Caricato, A. V. Marenich, 
 J. Bloino, B. G. Janesko, R. Gomperts, B. Mennucci, H. P. Hratchian, 
 J. V. Ortiz, A. F. Izmaylov, J. L. Sonnenberg, D. Williams-Young, 
 F. Ding, F. Lipparini, F. Egidi, J. Goings, B. Peng, A. Petrone, 
 T. Henderson, D. Ranasinghe, V. G. Zakrzewski, J. Gao, N. Rega, 
 G. Zheng, W. Liang, M. Hada, M. Ehara, K. Toyota, R. Fukuda, 
 J. Hasegawa, M. Ishida, T. Nakajima, Y. Honda, O. Kitao, H. Nakai, 
 T. Vreven, K. Throssell, J. A. Montgomery, Jr., J. E. Peralta, 
 F. Ogliaro, M. J. Bearpark, J. J. Heyd, E. N. Brothers, K. N. Kudin, 
 V. N. Staroverov, T. A. Keith, R. Kobayashi, J. Normand, 
 K. Raghavachari, A. P. Rendell, J. C. Burant, S. S. Iyengar, 
 J. Tomasi, M. Cossi, J. M. Millam, M. Klene, C. Adamo, R. Cammi, 
 J. W. Ochterski, R. L. Martin, K. Morokuma, O. Farkas, 
 J. B. Foresman, and D. J. Fox, Gaussian, Inc., Wallingford CT, 2016.
 
 ******************************************
 Gaussian 16:  ES64L-G16RevA.03 25-Dec-2016
                17-Apr-2021 
 ******************************************
 %RWF=temp0_94453,70GB
 %nprocshared=48
 Will use up to   48 processors via shared memory.
 Default route: MaxDisk=80GB
 ----------------------------------------------------------------------
 #P M062X/GEN Integral=UltraFineGrid SCF=NoSymm Stable=(RExt, Opt) IOp(
 1/33=1)
 ----------------------------------------------------------------------
 1/33=1,38=1,172=1/1;
 2/12=2,17=6,18=5,40=1/2;
 3/5=7,11=2,25=1,30=1,74=-55,75=-5/1,2,3;
 4/9=2/1;
 5/5=2,38=5/2;
 6/7=2,8=2,9=2,10=2,28=1/1;
 8/6=1,10=90,11=11/1;
 9/8=-3,42=1,46=1/14;
 5/5=2,8=3,17=40,38=5/8(-2);
 6/7=2,8=2,9=2,10=2,28=1/1;
 99/5=1,9=1/99;
 Leave Link    1 at Sat Apr 17 12:29:54 2021, MaxMem=           0 cpu:              11.0 elap:               0.3
 (Enter /s/ls4/users/knvvv/bin/g16sse/l101.exe)
 ONIOM data not found on unit 2.
 ----------------------
 Database calculations.
 ----------------------
 TstMul:  ICh=     0
 TstMul:  Mul=     2
 TstMul:  ICh=     0
 TstMul:  Mul=     2
 Symbolic Z-matrix:
 Charge =  0 Multiplicity = 2
 Cl                    0.        0.        0. 
 O                     0.        0.        1.57485 
 
 RdStrC is calling ZToCFu for IStruc=1 NZ=     2.
 PrtBox:  NBox=     1 Levels=  1 BoxLen=    8.00 SMaxX=        2.98
          Shift=            0.000000            0.000000            0.000000
 Box      1 Number                   0 centers from      1 to      2:
 After GenITR:
 ITRead=  0  0
 MicOpt= -1 -1
 ITRead=  0  0
 MicOpt= -1 -1
 NAtoms=      2 NQM=        2 NQMF=       0 NMMI=      0 NMMIF=      0
                NMic=       0 NMicF=      0.
                    Isotopes and Nuclear Properties:
 (Nuclear quadrupole moments (NQMom) in fm**2, nuclear magnetic moments (NMagM)
  in nuclear magnetons)

  Atom         1           2
 IAtWgt=          35          16
 AtmWgt=  34.9688527  15.9949146
 NucSpn=           3           0
 AtZEff=  -0.0000000  -0.0000000
 NQMom=   -8.1650000   0.0000000
 NMagM=    0.8218740   0.0000000
 AtZNuc=  17.0000000   8.0000000
 No MM parameters found.
 Leave Link  101 at Sat Apr 17 12:29:54 2021, MaxMem=   104857600 cpu:               8.1 elap:               0.2
 (Enter /s/ls4/users/knvvv/bin/g16sse/l202.exe)
                          Input orientation:                          
 ---------------------------------------------------------------------
 Center     Atomic      Atomic             Coordinates (Angstroms)
 Number     Number       Type             X           Y           Z
 ---------------------------------------------------------------------
      1         17           0        0.000000    0.000000    0.000000
      2          8           0        0.000000    0.000000    1.574855
 ---------------------------------------------------------------------
 Stoichiometry    ClO(2)
 Framework group  C*V[C*(OCl)]
 Deg. of freedom     1
 Full point group                 C*V     NOp   4
 Largest Abelian subgroup         C2V     NOp   4
 Largest concise Abelian subgroup C1      NOp   1
                         Standard orientation:                         
 ---------------------------------------------------------------------
 Center     Atomic      Atomic             Coordinates (Angstroms)
 Number     Number       Type             X           Y           Z
 ---------------------------------------------------------------------
      1         17           0        0.000000    0.000000    0.503953
      2          8           0        0.000000    0.000000   -1.070901
 ---------------------------------------------------------------------
 Rotational constants (GHZ):           0.0000000          18.5666881          18.5666881
 Leave Link  202 at Sat Apr 17 12:29:54 2021, MaxMem=   104857600 cpu:               6.0 elap:               0.1
 (Enter /s/ls4/users/knvvv/bin/g16sse/l301.exe)
 General basis read from cards:  (5D, 7F)
 Centers:       2
 S 8 1.00
     Exponent=  1.1650646908D+05 Coefficients=  4.0383857939D-05
     Exponent=  1.7504349724D+04 Coefficients=  3.1255139004D-04
     Exponent=  3.9934513230D+03 Coefficients=  1.6341473495D-03
     Exponent=  1.1330063186D+03 Coefficients=  6.8283224757D-03
     Exponent=  3.6999569594D+02 Coefficients=  2.4124410221D-02
     Exponent=  1.3362074349D+02 Coefficients=  7.2730206154D-02
     Exponent=  5.2035643649D+01 Coefficients=  1.7934429892D-01
     Exponent=  2.1461939313D+01 Coefficients=  3.3059588895D-01
 S 2 1.00
     Exponent=  8.9835051252D+01 Coefficients=  9.6468652996D-02
     Exponent=  2.6428010844D+01 Coefficients=  9.4117481120D-01
 S 1 1.00
     Exponent=  9.2822824649D+00 Coefficients=  1.0000000000D+00
 S 1 1.00
     Exponent=  4.0947728533D+00 Coefficients=  1.0000000000D+00
 S 1 1.00
     Exponent=  1.3255349078D+00 Coefficients=  1.0000000000D+00
 S 1 1.00
     Exponent=  5.1877230787D-01 Coefficients=  1.0000000000D+00
 S 1 1.00
     Exponent=  1.9772676454D-01 Coefficients=  1.0000000000D+00
 S 1 1.00
     Exponent=  6.9638535104D-02 Coefficients=  1.0000000000D+00
 P 5 1.00
     Exponent=  1.9115255810D+02 Coefficients=  2.5115697705D-03
     Exponent=  4.5233356739D+01 Coefficients=  2.0039240864D-02
     Exponent=  1.4353465922D+01 Coefficients=  9.3609064762D-02
     Exponent=  5.2422371832D+00 Coefficients=  3.0618127124D-01
     Exponent=  2.0792418599D+00 Coefficients=  6.7810501439D-01
 P 1 1.00
     Exponent=  8.4282371424D-01 Coefficients=  1.0000000000D+00
 P 1 1.00
     Exponent=  3.3617694891D-01 Coefficients=  1.0000000000D+00
 P 1 1.00
     Exponent=  1.2863997974D-01 Coefficients=  1.0000000000D+00
 P 1 1.00
     Exponent=  4.3598162776D-02 Coefficients=  1.0000000000D+00
 D 1 1.00
     Exponent=  3.7750000000D+00 Coefficients=  1.0000000000D+00
 D 1 1.00
     Exponent=  1.3000000000D+00 Coefficients=  1.0000000000D+00
 D 1 1.00
     Exponent=  4.4400000000D-01 Coefficients=  1.0000000000D+00
 D 1 1.00
     Exponent=  1.2546378695D-01 Coefficients=  1.0000000000D+00
 F 1 1.00
     Exponent=  2.6660000000D+00 Coefficients=  1.0000000000D+00
 F 1 1.00
     Exponent=  8.5900000000D-01 Coefficients=  1.0000000000D+00
 G 1 1.00
     Exponent=  1.8460000000D+00 Coefficients=  1.0000000000D+00
 ****
 Centers:       1
 S 10 1.00
     Exponent=  1.4674590095D+06 Coefficients=  1.1478257194D-05
     Exponent=  2.1975616433D+05 Coefficients=  8.9234299775D-05
     Exponent=  5.0010770301D+04 Coefficients=  4.6911086186D-04
     Exponent=  1.4164823918D+04 Coefficients=  1.9762446133D-03
     Exponent=  4.6207465525D+03 Coefficients=  7.1419937783D-03
     Exponent=  1.6678991635D+03 Coefficients=  2.2753219445D-02
     Exponent=  6.5029199265D+02 Coefficients=  6.3959782953D-02
     Exponent=  2.6938037376D+02 Coefficients=  1.5331059238D-01
     Exponent=  1.1706752106D+02 Coefficients=  2.8986952417D-01
     Exponent=  5.2811766843D+01 Coefficients=  3.6348071452D-01
 S 3 1.00
     Exponent=  4.6142769988D+02 Coefficients=  1.8019457578D-02
     Exponent=  1.4212665355D+02 Coefficients=  1.6489442314D-01
     Exponent=  5.4437838768D+01 Coefficients=  6.3891587584D-01
 S 1 1.00
     Exponent=  2.4160770219D+01 Coefficients=  1.0000000000D+00
 S 1 1.00
     Exponent=  9.7083540306D+00 Coefficients=  1.0000000000D+00
 S 1 1.00
     Exponent=  4.5640696733D+00 Coefficients=  1.0000000000D+00
 S 1 1.00
     Exponent=  2.1194744832D+00 Coefficients=  1.0000000000D+00
 S 1 1.00
     Exponent=  7.5722365394D-01 Coefficients=  1.0000000000D+00
 S 1 1.00
     Exponent=  3.3747224597D-01 Coefficients=  1.0000000000D+00
 S 1 1.00
     Exponent=  1.3860775149D-01 Coefficients=  1.0000000000D+00
 S 1 1.00
     Exponent=  5.4234565513D-02 Coefficients=  1.0000000000D+00
 P 8 1.00
     Exponent=  2.5019457890D+03 Coefficients=  2.4242618410D-04
     Exponent=  5.9288059285D+02 Coefficients=  2.1079961749D-03
     Exponent=  1.9218089186D+02 Coefficients=  1.1432693869D-02
     Exponent=  7.2875710488D+01 Coefficients=  4.4956698060D-02
     Exponent=  3.0436358370D+01 Coefficients=  1.3197476145D-01
     Exponent=  1.3490178902D+01 Coefficients=  2.7493639225D-01
     Exponent=  6.1478071413D+00 Coefficients=  3.8347236372D-01
     Exponent=  2.8450944820D+00 Coefficients=  2.8871943885D-01
 P 2 1.00
     Exponent=  1.0539397936D+02 Coefficients= -3.4311760144D-02
     Exponent=  6.7369738513D+00 Coefficients=  6.4060818902D-01
 P 1 1.00
     Exponent=  1.2421095772D+00 Coefficients=  1.0000000000D+00
 P 1 1.00
     Exponent=  5.5669714254D-01 Coefficients=  1.0000000000D+00
 P 1 1.00
     Exponent=  2.3387801464D-01 Coefficients=  1.0000000000D+00
 P 1 1.00
     Exponent=  9.3164490890D-02 Coefficients=  1.0000000000D+00
 P 1 1.00
     Exponent=  2.7256146018D-02 Coefficients=  1.0000000000D+00
 D 1 1.00
     Exponent=  5.1910000000D+00 Coefficients=  1.0000000000D+00
 D 1 1.00
     Exponent=  1.2760000000D+00 Coefficients=  1.0000000000D+00
 D 1 1.00
     Exponent=  5.8300000000D-01 Coefficients=  1.0000000000D+00
 D 1 1.00
     Exponent=  2.4300000000D-01 Coefficients=  1.0000000000D+00
 D 1 1.00
     Exponent=  8.3456538402D-02 Coefficients=  1.0000000000D+00
 F 1 1.00
     Exponent=  1.0890000000D+00 Coefficients=  1.0000000000D+00
 F 1 1.00
     Exponent=  4.2300000000D-01 Coefficients=  1.0000000000D+00
 G 1 1.00
     Exponent=  8.2700000000D-01 Coefficients=  1.0000000000D+00
 ****
 Ernie: Thresh=  0.10000D-02 Tol=  0.10000D-05 Strict=F.
 There are    81 symmetry adapted cartesian basis functions of A1  symmetry.
 There are    19 symmetry adapted cartesian basis functions of A2  symmetry.
 There are    39 symmetry adapted cartesian basis functions of B1  symmetry.
 There are    39 symmetry adapted cartesian basis functions of B2  symmetry.
 There are    62 symmetry adapted basis functions of A1  symmetry.
 There are    17 symmetry adapted basis functions of A2  symmetry.
 There are    33 symmetry adapted basis functions of B1  symmetry.
 There are    33 symmetry adapted basis functions of B2  symmetry.
   145 basis functions,   233 primitive gaussians,   178 cartesian basis functions
    13 alpha electrons       12 beta electrons
       nuclear repulsion energy        45.6982486061 Hartrees.
 IExCor= 4336 DFT=T Ex+Corr=M062X ExCW=0 ScaHFX=  0.540000
 ScaDFX=  1.000000  1.000000  1.000000  1.000000 ScalE2=  1.000000  1.000000
 IRadAn=      5 IRanWt=     -1 IRanGd=            0 ICorTp=0 IEmpDi=  4
 NAtoms=    2 NActive=    2 NUniq=    2 SFac= 1.00D+00 NAtFMM=   60 NAOKFM=F Big=F
 Integral buffers will be    131072 words long.
 Raffenetti 2 integral format.
 Two-electron integral symmetry is turned on.
 Leave Link  301 at Sat Apr 17 12:29:54 2021, MaxMem=   104857600 cpu:               8.1 elap:               0.2
 (Enter /s/ls4/users/knvvv/bin/g16sse/l302.exe)
 NPDir=0 NMtPBC=     1 NCelOv=     1 NCel=       1 NClECP=     1 NCelD=      1
         NCelK=      1 NCelE2=     1 NClLst=     1 CellRange=     0.0.
 One-electron integrals computed using PRISM.
 One-electron integral symmetry used in STVInt
 PrsmSu:  requested number of processors reduced to:   4 ShMem   1 Linda.
 PrsmSu:  requested number of processors reduced to:  21 ShMem   1 Linda.
 NBasis=   145 RedAO= T EigKep=  1.70D-04  NBF=    62    17    33    33
 NBsUse=   145 1.00D-06 EigRej= -1.00D+00 NBFU=    62    17    33    33
 Precomputing XC quadrature grid using
 IXCGrd= 4 IRadAn=           5 IRanWt=          -1 IRanGd=           0 AccXCQ= 0.00D+00.
 Generated NRdTot=       0 NPtTot=           0 NUsed=           0 NTot=          32
 NSgBfM=   176   176   176   176   176 MxSgAt=     2 MxSgA2=     2.
 Leave Link  302 at Sat Apr 17 12:29:58 2021, MaxMem=   104857600 cpu:             182.6 elap:               4.0
 (Enter /s/ls4/users/knvvv/bin/g16sse/l303.exe)
 DipDrv:  MaxL=1.
 Leave Link  303 at Sat Apr 17 12:29:59 2021, MaxMem=   104857600 cpu:              24.2 elap:               0.7
 (Enter /s/ls4/users/knvvv/bin/g16sse/l401.exe)
 SCF N**3 symmetry information disabled.
 ExpMin= 2.73D-02 ExpMax= 1.47D+06 ExpMxC= 1.67D+03 IAcc=3 IRadAn=         5 AccDes= 0.00D+00
 Harris functional with IExCor= 1009 and IRadAn=       5 diagonalized for initial guess.
 HarFok:  IExCor= 1009 AccDes= 0.00D+00 IRadAn=         5 IDoV= 1 UseB2=F ITyADJ=14
 ICtDFT=  3500011 ScaDFX=  1.000000  1.000000  1.000000  1.000000
 FoFCou: FMM=F IPFlag=           0 FMFlag=      100000 FMFlg1=           0
         NFxFlg=           0 DoJE=T BraDBF=F KetDBF=T FulRan=T
         wScrn=  0.000000 ICntrl=       500 IOpCl=  0 I1Cent=   200000004 NGrid=           0
         NMat0=    1 NMatS0=      1 NMatT0=    0 NMatD0=    1 NMtDS0=    0 NMtDT0=    0
 Petite list used in FoFCou.
 CoulSu:  requested number of processors reduced to:  21 ShMem   1 Linda.
 CoulSu:  requested number of processors reduced to:  21 ShMem   1 Linda.
 CoulSu:  requested number of processors reduced to:  21 ShMem   1 Linda.
 CoulSu:  requested number of processors reduced to:  21 ShMem   1 Linda.
 Harris En= -535.066823397129    
 JPrj=0 DoOrth=F DoCkMO=F.
 Initial guess orbital symmetries:
 Alpha Orbitals:
       Occupied  (SG) (SG) (SG) (SG) (PI) (PI) (SG) (SG) (SG) (PI)
                 (PI) (PI) (PI)
       Virtual   (SG) (SG) (PI) (PI) (SG) (SG) (PI) (PI) (DLTA)
                 (DLTA) (SG) (PI) (PI) (SG) (PI) (PI) (SG) (DLTA)
                 (DLTA) (PI) (PI) (SG) (DLTA) (DLTA) (PI) (PI)
                 (SG) (SG) (PI) (PI) (SG) (SG) (PI) (PI) (DLTA)
                 (DLTA) (PI) (PI) (SG) (DLTA) (DLTA) (PHI) (PHI)
                 (PI) (PI) (SG) (DLTA) (DLTA) (SG) (PI) (PI) (SG)
                 (PI) (PI) (SG) (SG) (PHI) (PHI) (DLTA) (DLTA)
                 (PI) (PI) (SG) (DLTA) (DLTA) (SG) (PI) (PI) (?A)
                 (?A) (PHI) (PHI) (SG) (DLTA) (DLTA) (PI) (PI)
                 (PHI) (PHI) (DLTA) (DLTA) (SG) (PI) (PI) (DLTA)
                 (DLTA) (PI) (PI) (SG) (SG) (PI) (PI) (PI) (PI)
                 (SG) (SG) (SG) (?A) (?A) (PHI) (PHI) (DLTA) (DLTA)
                 (PI) (PI) (SG) (DLTA) (DLTA) (PI) (PI) (PHI) (PHI)
                 (DLTA) (DLTA) (SG) (PI) (PI) (SG) (DLTA) (DLTA)
                 (PI) (PI) (SG) (SG) (SG) (PI) (PI) (SG) (SG) (SG)
                 (SG) (SG)
 Beta  Orbitals:
       Occupied  (SG) (SG) (SG) (SG) (PI) (PI) (SG) (SG) (SG) (PI)
                 (PI) (PI)
       Virtual   (PI) (SG) (SG) (PI) (PI) (SG) (SG) (PI) (PI) (DLTA)
                 (DLTA) (SG) (PI) (PI) (SG) (PI) (PI) (SG) (DLTA)
                 (DLTA) (PI) (PI) (SG) (DLTA) (DLTA) (PI) (PI)
                 (SG) (SG) (PI) (PI) (SG) (SG) (PI) (PI) (DLTA)
                 (DLTA) (PI) (PI) (SG) (DLTA) (DLTA) (PHI) (PHI)
                 (PI) (PI) (SG) (DLTA) (DLTA) (SG) (PI) (PI) (SG)
                 (PI) (PI) (SG) (SG) (PHI) (PHI) (DLTA) (DLTA)
                 (PI) (PI) (SG) (DLTA) (DLTA) (SG) (PI) (PI) (?A)
                 (?A) (PHI) (PHI) (SG) (DLTA) (DLTA) (PI) (PI)
                 (PHI) (PHI) (DLTA) (DLTA) (SG) (PI) (PI) (DLTA)
                 (DLTA) (PI) (PI) (SG) (SG) (PI) (PI) (PI) (PI)
                 (SG) (SG) (SG) (?A) (?A) (PHI) (PHI) (DLTA) (DLTA)
                 (PI) (PI) (SG) (DLTA) (DLTA) (PI) (PI) (PHI) (PHI)
                 (DLTA) (DLTA) (SG) (PI) (PI) (SG) (DLTA) (DLTA)
                 (PI) (PI) (SG) (SG) (SG) (PI) (PI) (SG) (SG) (SG)
                 (SG) (SG)
 Initial guess <Sx>= 0.0000 <Sy>= 0.0000 <Sz>= 0.5000 <S**2>= 0.7500 S= 0.5000
 Leave Link  401 at Sat Apr 17 12:30:02 2021, MaxMem=   104857600 cpu:             112.1 elap:               2.6
 (Enter /s/ls4/users/knvvv/bin/g16sse/l502.exe)
 Integral symmetry usage will be decided dynamically.
 UHF open shell SCF:
 Using DIIS extrapolation, IDIIS=  1040.
 NGot=   104857600 LenX=   104783104 LenY=   104750979
 Requested convergence on RMS density matrix=1.00D-08 within 128 cycles.
 Requested convergence on MAX density matrix=1.00D-06.
 Requested convergence on             energy=1.00D-06.
 No special actions if energy rises.
 Fock matrices will be formed incrementally for  20 cycles.

 Cycle   1  Pass 1  IDiag  1:
 FoFJK:  IHMeth= 1 ICntrl=       0 DoSepK=F KAlg= 0 I1Cent=           0 FoldK=F
 IRaf= 990000000 NMat=       1 IRICut=       1 DoRegI=T DoRafI=F ISym2E= 1 IDoP0=0 IntGTp=1.
 FoFCou: FMM=F IPFlag=           0 FMFlag=      100000 FMFlg1=           0
         NFxFlg=           0 DoJE=F BraDBF=F KetDBF=F FulRan=T
         wScrn=  0.000000 ICntrl=         0 IOpCl=  1 I1Cent=           0 NGrid=           0
         NMat0=    1 NMatS0=      1 NMatT0=    0 NMatD0=    1 NMtDS0=    0 NMtDT0=    0
 Petite list used in FoFCou.
 CoulSu:  requested number of processors reduced to:  20 ShMem   1 Linda.
 E= -535.185146597740    
 DIIS: error= 3.96D-02 at cycle   1 NSaved=   1.
 NSaved= 1 IEnMin= 1 EnMin= -535.185146597740     IErMin= 1 ErrMin= 3.96D-02
 ErrMax= 3.96D-02  0.00D+00 EMaxC= 1.00D-01 BMatC= 9.59D-01 BMatP= 9.59D-01
 IDIUse=3 WtCom= 6.04D-01 WtEn= 3.96D-01
 Coeff-Com:  0.100D+01
 Coeff-En:   0.100D+01
 Coeff:      0.100D+01
 Gap=     0.377 Goal=   None    Shift=    0.000
 Gap=     0.189 Goal=   None    Shift=    0.000
 GapD=    0.189 DampG=1.000 DampE=0.500 DampFc=0.5000 IDamp=-1.
 Damping current iteration by 5.00D-01
 RMSDP=3.31D-03 MaxDP=1.17D-01              OVMax= 4.89D-01

 Cycle   2  Pass 1  IDiag  1:
 RMSU=  1.65D-03    CP:  1.01D+00
 CoulSu:  requested number of processors reduced to:  20 ShMem   1 Linda.
 E= -535.211735917800     Delta-E=       -0.026589320060 Rises=F Damp=T
 DIIS: error= 2.05D-02 at cycle   2 NSaved=   2.
 NSaved= 2 IEnMin= 2 EnMin= -535.211735917800     IErMin= 2 ErrMin= 2.05D-02
 ErrMax= 2.05D-02  0.00D+00 EMaxC= 1.00D-01 BMatC= 2.06D-01 BMatP= 9.59D-01
 IDIUse=3 WtCom= 7.95D-01 WtEn= 2.05D-01
 Coeff-Com:  0.186D+00 0.814D+00
 Coeff-En:   0.403D+00 0.597D+00
 Coeff:      0.231D+00 0.769D+00
 Gap=     0.389 Goal=   None    Shift=    0.000
 Gap=     0.220 Goal=   None    Shift=    0.000
 RMSDP=8.79D-04 MaxDP=3.21D-02 DE=-2.66D-02 OVMax= 2.77D-01

 Cycle   3  Pass 1  IDiag  1:
 RMSU=  8.17D-04    CP:  1.01D+00  8.07D-01
 CoulSu:  requested number of processors reduced to:  20 ShMem   1 Linda.
 E= -535.315555912069     Delta-E=       -0.103819994269 Rises=F Damp=F
 DIIS: error= 1.19D-02 at cycle   3 NSaved=   3.
 NSaved= 3 IEnMin= 3 EnMin= -535.315555912069     IErMin= 3 ErrMin= 1.19D-02
 ErrMax= 1.19D-02  0.00D+00 EMaxC= 1.00D-01 BMatC= 2.28D-02 BMatP= 2.06D-01
 IDIUse=3 WtCom= 8.81D-01 WtEn= 1.19D-01
 Coeff-Com: -0.315D-01 0.201D+00 0.831D+00
 Coeff-En:   0.000D+00 0.000D+00 0.100D+01
 Coeff:     -0.277D-01 0.177D+00 0.851D+00
 Gap=     0.350 Goal=   None    Shift=    0.000
 Gap=     0.207 Goal=   None    Shift=    0.000
 RMSDP=3.58D-04 MaxDP=1.87D-02 DE=-1.04D-01 OVMax= 8.02D-02

 Cycle   4  Pass 1  IDiag  1:
 RMSU=  3.01D-04    CP:  1.01D+00  9.15D-01  9.29D-01
 CoulSu:  requested number of processors reduced to:  20 ShMem   1 Linda.
 E= -535.320382176031     Delta-E=       -0.004826263962 Rises=F Damp=F
 DIIS: error= 4.86D-03 at cycle   4 NSaved=   4.
 NSaved= 4 IEnMin= 4 EnMin= -535.320382176031     IErMin= 4 ErrMin= 4.86D-03
 ErrMax= 4.86D-03  0.00D+00 EMaxC= 1.00D-01 BMatC= 7.02D-03 BMatP= 2.28D-02
 IDIUse=3 WtCom= 9.51D-01 WtEn= 4.86D-02
 Coeff-Com:  0.824D-02-0.308D-01 0.293D+00 0.729D+00
 Coeff-En:   0.000D+00 0.000D+00 0.000D+00 0.100D+01
 Coeff:      0.784D-02-0.293D-01 0.279D+00 0.743D+00
 Gap=     0.354 Goal=   None    Shift=    0.000
 Gap=     0.213 Goal=   None    Shift=    0.000
 RMSDP=1.38D-04 MaxDP=4.57D-03 DE=-4.83D-03 OVMax= 1.66D-02

 Cycle   5  Pass 1  IDiag  1:
 RMSU=  1.10D-04    CP:  1.01D+00  9.01D-01  1.03D+00  1.03D+00
 CoulSu:  requested number of processors reduced to:  20 ShMem   1 Linda.
 E= -535.322037646656     Delta-E=       -0.001655470625 Rises=F Damp=F
 DIIS: error= 1.62D-03 at cycle   5 NSaved=   5.
 NSaved= 5 IEnMin= 5 EnMin= -535.322037646656     IErMin= 5 ErrMin= 1.62D-03
 ErrMax= 1.62D-03  0.00D+00 EMaxC= 1.00D-01 BMatC= 5.93D-04 BMatP= 7.02D-03
 IDIUse=3 WtCom= 9.84D-01 WtEn= 1.62D-02
 Coeff-Com:  0.177D-01-0.337D-01-0.184D+00-0.268D+00 0.147D+01
 Coeff-En:   0.000D+00 0.000D+00 0.000D+00 0.000D+00 0.100D+01
 Coeff:      0.174D-01-0.331D-01-0.181D+00-0.263D+00 0.146D+01
 Gap=     0.354 Goal=   None    Shift=    0.000
 Gap=     0.217 Goal=   None    Shift=    0.000
 RMSDP=1.50D-04 MaxDP=7.78D-03 DE=-1.66D-03 OVMax= 3.33D-02

 Cycle   6  Pass 1  IDiag  1:
 RMSU=  4.68D-05    CP:  1.01D+00  8.89D-01  1.05D+00  1.35D+00  1.93D+00
 CoulSu:  requested number of processors reduced to:  20 ShMem   1 Linda.
 E= -535.322645608587     Delta-E=       -0.000607961931 Rises=F Damp=F
 DIIS: error= 8.35D-04 at cycle   6 NSaved=   6.
 NSaved= 6 IEnMin= 6 EnMin= -535.322645608587     IErMin= 6 ErrMin= 8.35D-04
 ErrMax= 8.35D-04  0.00D+00 EMaxC= 1.00D-01 BMatC= 8.66D-05 BMatP= 5.93D-04
 IDIUse=3 WtCom= 9.92D-01 WtEn= 8.35D-03
 Coeff-Com: -0.625D-03 0.463D-02-0.259D-01-0.129D+00-0.111D+00 0.126D+01
 Coeff-En:   0.000D+00 0.000D+00 0.000D+00 0.000D+00 0.000D+00 0.100D+01
 Coeff:     -0.619D-03 0.459D-02-0.257D-01-0.128D+00-0.110D+00 0.126D+01
 Gap=     0.354 Goal=   None    Shift=    0.000
 Gap=     0.219 Goal=   None    Shift=    0.000
 RMSDP=7.70D-05 MaxDP=3.59D-03 DE=-6.08D-04 OVMax= 1.79D-02

 Cycle   7  Pass 1  IDiag  1:
 RMSU=  1.27D-05    CP:  1.01D+00  8.87D-01  1.07D+00  1.47D+00  2.47D+00
                    CP:  1.63D+00
 CoulSu:  requested number of processors reduced to:  20 ShMem   1 Linda.
 E= -535.322771038727     Delta-E=       -0.000125430139 Rises=F Damp=F
 DIIS: error= 3.89D-04 at cycle   7 NSaved=   7.
 NSaved= 7 IEnMin= 7 EnMin= -535.322771038727     IErMin= 7 ErrMin= 3.89D-04
 ErrMax= 3.89D-04  0.00D+00 EMaxC= 1.00D-01 BMatC= 1.10D-05 BMatP= 8.66D-05
 IDIUse=3 WtCom= 9.96D-01 WtEn= 3.89D-03
 Coeff-Com: -0.147D-02 0.287D-02 0.316D-01 0.587D-01-0.246D+00-0.117D+00
 Coeff-Com:  0.127D+01
 Coeff-En:   0.000D+00 0.000D+00 0.000D+00 0.000D+00 0.000D+00 0.000D+00
 Coeff-En:   0.100D+01
 Coeff:     -0.147D-02 0.286D-02 0.314D-01 0.585D-01-0.245D+00-0.117D+00
 Coeff:      0.127D+01
 Gap=     0.354 Goal=   None    Shift=    0.000
 Gap=     0.220 Goal=   None    Shift=    0.000
 RMSDP=3.24D-05 MaxDP=1.41D-03 DE=-1.25D-04 OVMax= 7.67D-03

 Cycle   8  Pass 1  IDiag  1:
 RMSU=  5.29D-06    CP:  1.01D+00  8.87D-01  1.07D+00  1.52D+00  2.67D+00
                    CP:  1.97D+00  1.48D+00
 CoulSu:  requested number of processors reduced to:  20 ShMem   1 Linda.
 E= -535.322786819182     Delta-E=       -0.000015780456 Rises=F Damp=F
 DIIS: error= 5.67D-05 at cycle   8 NSaved=   8.
 NSaved= 8 IEnMin= 8 EnMin= -535.322786819182     IErMin= 8 ErrMin= 5.67D-05
 ErrMax= 5.67D-05  0.00D+00 EMaxC= 1.00D-01 BMatC= 1.17D-06 BMatP= 1.10D-05
 IDIUse=1 WtCom= 1.00D+00 WtEn= 0.00D+00
 Coeff-Com:  0.313D-03-0.705D-03 0.424D-02 0.129D-01-0.246D-01-0.123D+00
 Coeff-Com:  0.199D+00 0.932D+00
 Coeff:      0.313D-03-0.705D-03 0.424D-02 0.129D-01-0.246D-01-0.123D+00
 Coeff:      0.199D+00 0.932D+00
 Gap=     0.354 Goal=   None    Shift=    0.000
 Gap=     0.220 Goal=   None    Shift=    0.000
 RMSDP=7.21D-06 MaxDP=2.93D-04 DE=-1.58D-05 OVMax= 1.47D-03

 Cycle   9  Pass 1  IDiag  1:
 RMSU=  1.56D-06    CP:  1.01D+00  8.86D-01  1.07D+00  1.53D+00  2.72D+00
                    CP:  2.03D+00  1.60D+00  1.11D+00
 CoulSu:  requested number of processors reduced to:  20 ShMem   1 Linda.
 E= -535.322787509836     Delta-E=       -0.000000690654 Rises=F Damp=F
 DIIS: error= 8.95D-06 at cycle   9 NSaved=   9.
 NSaved= 9 IEnMin= 9 EnMin= -535.322787509836     IErMin= 9 ErrMin= 8.95D-06
 ErrMax= 8.95D-06  0.00D+00 EMaxC= 1.00D-01 BMatC= 2.23D-08 BMatP= 1.17D-06
 IDIUse=1 WtCom= 1.00D+00 WtEn= 0.00D+00
 Coeff-Com: -0.137D-04 0.156D-04-0.864D-03-0.320D-02 0.109D-01 0.851D-02
 Coeff-Com: -0.583D-01-0.373D-02 0.105D+01
 Coeff:     -0.137D-04 0.156D-04-0.864D-03-0.320D-02 0.109D-01 0.851D-02
 Coeff:     -0.583D-01-0.373D-02 0.105D+01
 Gap=     0.354 Goal=   None    Shift=    0.000
 Gap=     0.220 Goal=   None    Shift=    0.000
 RMSDP=6.58D-07 MaxDP=2.84D-05 DE=-6.91D-07 OVMax= 5.23D-05

 Cycle  10  Pass 1  IDiag  1:
 RMSU=  3.56D-07    CP:  1.01D+00  8.86D-01  1.07D+00  1.53D+00  2.72D+00
                    CP:  2.03D+00  1.62D+00  1.18D+00  1.14D+00
 CoulSu:  requested number of processors reduced to:  20 ShMem   1 Linda.
 E= -535.322787518313     Delta-E=       -0.000000008477 Rises=F Damp=F
 DIIS: error= 1.91D-06 at cycle  10 NSaved=  10.
 NSaved=10 IEnMin=10 EnMin= -535.322787518313     IErMin=10 ErrMin= 1.91D-06
 ErrMax= 1.91D-06  0.00D+00 EMaxC= 1.00D-01 BMatC= 1.14D-09 BMatP= 2.23D-08
 IDIUse=1 WtCom= 1.00D+00 WtEn= 0.00D+00
 Coeff-Com: -0.376D-05 0.109D-04-0.285D-03-0.424D-03 0.119D-02 0.400D-02
 Coeff-Com: -0.644D-02-0.427D-01-0.798D-01 0.112D+01
 Coeff:     -0.376D-05 0.109D-04-0.285D-03-0.424D-03 0.119D-02 0.400D-02
 Coeff:     -0.644D-02-0.427D-01-0.798D-01 0.112D+01
 Gap=     0.354 Goal=   None    Shift=    0.000
 Gap=     0.220 Goal=   None    Shift=    0.000
 RMSDP=2.05D-07 MaxDP=8.44D-06 DE=-8.48D-09 OVMax= 2.95D-05

 Cycle  11  Pass 1  IDiag  1:
 RMSU=  6.87D-08    CP:  1.01D+00  8.86D-01  1.07D+00  1.53D+00  2.72D+00
                    CP:  2.03D+00  1.62D+00  1.20D+00  1.21D+00  1.24D+00
 CoulSu:  requested number of processors reduced to:  20 ShMem   1 Linda.
 E= -535.322787518949     Delta-E=       -0.000000000636 Rises=F Damp=F
 DIIS: error= 5.84D-07 at cycle  11 NSaved=  11.
 NSaved=11 IEnMin=11 EnMin= -535.322787518949     IErMin=11 ErrMin= 5.84D-07
 ErrMax= 5.84D-07  0.00D+00 EMaxC= 1.00D-01 BMatC= 5.94D-11 BMatP= 1.14D-09
 IDIUse=1 WtCom= 1.00D+00 WtEn= 0.00D+00
 Coeff-Com: -0.146D-06 0.138D-05 0.439D-04 0.147D-03-0.468D-03 0.100D-03
 Coeff-Com:  0.158D-02-0.611D-02-0.525D-01 0.104D+00 0.954D+00
 Coeff:     -0.146D-06 0.138D-05 0.439D-04 0.147D-03-0.468D-03 0.100D-03
 Coeff:      0.158D-02-0.611D-02-0.525D-01 0.104D+00 0.954D+00
 Gap=     0.354 Goal=   None    Shift=    0.000
 Gap=     0.220 Goal=   None    Shift=    0.000
 RMSDP=3.76D-08 MaxDP=1.30D-06 DE=-6.36D-10 OVMax= 4.83D-06

 Cycle  12  Pass 1  IDiag  1:
 RMSU=  1.34D-08    CP:  1.01D+00  8.86D-01  1.07D+00  1.53D+00  2.72D+00
                    CP:  2.04D+00  1.62D+00  1.20D+00  1.22D+00  1.29D+00
                    CP:  1.16D+00
 CoulSu:  requested number of processors reduced to:  20 ShMem   1 Linda.
 E= -535.322787518970     Delta-E=       -0.000000000020 Rises=F Damp=F
 DIIS: error= 1.30D-07 at cycle  12 NSaved=  12.
 NSaved=12 IEnMin=12 EnMin= -535.322787518970     IErMin=12 ErrMin= 1.30D-07
 ErrMax= 1.30D-07  0.00D+00 EMaxC= 1.00D-01 BMatC= 3.15D-12 BMatP= 5.94D-11
 IDIUse=1 WtCom= 1.00D+00 WtEn= 0.00D+00
 Coeff-Com:  0.765D-06-0.154D-05-0.167D-05-0.218D-04 0.692D-05-0.582D-04
 Coeff-Com:  0.164D-05 0.197D-02 0.741D-02-0.417D-01-0.172D+00 0.120D+01
 Coeff:      0.765D-06-0.154D-05-0.167D-05-0.218D-04 0.692D-05-0.582D-04
 Coeff:      0.164D-05 0.197D-02 0.741D-02-0.417D-01-0.172D+00 0.120D+01
 Gap=     0.354 Goal=   None    Shift=    0.000
 Gap=     0.220 Goal=   None    Shift=    0.000
 RMSDP=1.04D-08 MaxDP=4.95D-07 DE=-2.05D-11 OVMax= 1.28D-06

 Cycle  13  Pass 1  IDiag  1:
 RMSU=  2.53D-09    CP:  1.01D+00  8.86D-01  1.07D+00  1.53D+00  2.72D+00
                    CP:  2.04D+00  1.62D+00  1.20D+00  1.22D+00  1.30D+00
                    CP:  1.22D+00  1.32D+00
 CoulSu:  requested number of processors reduced to:  20 ShMem   1 Linda.
 E= -535.322787518971     Delta-E=       -0.000000000002 Rises=F Damp=F
 DIIS: error= 2.75D-08 at cycle  13 NSaved=  13.
 NSaved=13 IEnMin=13 EnMin= -535.322787518971     IErMin=13 ErrMin= 2.75D-08
 ErrMax= 2.75D-08  0.00D+00 EMaxC= 1.00D-01 BMatC= 1.53D-13 BMatP= 3.15D-12
 IDIUse=1 WtCom= 1.00D+00 WtEn= 0.00D+00
 Coeff-Com: -0.867D-07 0.986D-07-0.246D-05-0.319D-06 0.236D-04 0.973D-05
 Coeff-Com: -0.875D-04-0.726D-04 0.621D-03 0.403D-02-0.107D-01-0.144D+00
 Coeff-Com:  0.115D+01
 Coeff:     -0.867D-07 0.986D-07-0.246D-05-0.319D-06 0.236D-04 0.973D-05
 Coeff:     -0.875D-04-0.726D-04 0.621D-03 0.403D-02-0.107D-01-0.144D+00
 Coeff:      0.115D+01
 Gap=     0.354 Goal=   None    Shift=    0.000
 Gap=     0.220 Goal=   None    Shift=    0.000
 RMSDP=1.72D-09 MaxDP=5.35D-08 DE=-1.59D-12 OVMax= 2.42D-07

 SCF Done:  E(UM062X) =  -535.322787519     A.U. after   13 cycles
            NFock= 13  Conv=0.17D-08     -V/T= 2.0016
 <Sx>= 0.0000 <Sy>= 0.0000 <Sz>= 0.5000 <S**2>= 0.7568 S= 0.5034
 <L.S>= 0.000000000000E+00
 KE= 5.344458213740D+02 PE=-1.363404405479D+03 EE= 2.479375479798D+02
 Annihilation of the first spin contaminant:
 S**2 before annihilation     0.7568,   after     0.7500
 Leave Link  502 at Sat Apr 17 12:32:32 2021, MaxMem=   104857600 cpu:            6833.2 elap:             150.3
 (Enter /s/ls4/users/knvvv/bin/g16sse/l601.exe)
 Copying SCF densities to generalized density rwf, IOpCl= 1 IROHF=0.

 **********************************************************************

            Population analysis using the SCF density.

 **********************************************************************

 Orbital symmetries:
 Alpha Orbitals:
       Occupied  (SG) (SG) (SG) (PI) (SG) (PI) (SG) (SG) (?A) (SG)
                 (?A) (?A) (?A)
       Virtual   (SG) (PI) (PI) (SG) (SG) (SG) (PI) (PI) (DLTA)
                 (DLTA) (SG) (PI) (PI) (SG) (PI) (PI) (?B) (?B)
                 (?B) (?B) (PI) (PI) (?B) (?B) (PI) (PI) (SG) (SG)
                 (PI) (PI) (SG) (?C) (PI) (PI) (?C) (?C) (?D) (?D)
                 (?E) (?E) (?E) (?D) (?D) (?F) (PI) (PI) (?F) (?F)
                 (PI) (SG) (PI) (SG) (PI) (PI) (SG) (SG) (DLTA)
                 (DLTA) (?D) (?D) (?D) (?D) (?G) (?G) (?G) (SG)
                 (PI) (PI) (?H) (?H) (PHI) (PHI) (SG) (?I) (?I)
                 (PHI) (PHI) (PI) (PI) (?I) (?I) (?I) (PI) (PI)
                 (?J) (?J) (PI) (PI) (?J) (SG) (PI) (PI) (PI) (SG)
                 (PI) (SG) (SG) (?D) (?D) (?K) (?K) (?K) (?K) (?D)
                 (?D) (?K) (DLTA) (DLTA) (?D) (?D) (?D) (?D) (?L)
                 (?L) (?L) (PI) (PI) (?L) (?L) (?L) (PI) (PI) (?L)
                 (SG) (SG) (PI) (PI) (SG) (SG) (SG) (SG) (SG)
 Beta  Orbitals:
       Occupied  (SG) (SG) (SG) (SG) (PI) (PI) (SG) (SG) (SG) (?A)
                 (?A) (?A)
       Virtual   (?A) (SG) (PI) (PI) (?B) (SG) (?B) (?A) (?A) (?B)
                 (?B) (?B) (PI) (PI) (SG) (PI) (PI) (?B) (?B) (?B)
                 (PI) (SG) (PI) (?C) (?C) (PI) (PI) (?C) (SG) (PI)
                 (PI) (SG) (SG) (PI) (PI) (DLTA) (DLTA) (PI) (PI)
                 (?D) (?D) (?D) (PHI) (PHI) (?B) (PI) (PI) (?B)
                 (?B) (?B) (PI) (PI) (SG) (PI) (PI) (SG) (SG) (DLTA)
                 (DLTA) (PHI) (PHI) (PI) (PI) (?E) (?E) (?E) (PI)
                 (SG) (PI) (?F) (?F) (PHI) (PHI) (?G) (?G) (?G)
                 (?H) (?H) (?H) (?H) (?G) (?G) (?G) (PI) (PI) (?G)
                 (?G) (PI) (PI) (?G) (SG) (PI) (PI) (SG) (PI) (PI)
                 (SG) (SG) (?H) (?H) (?I) (?I) (?I) (?I) (?H) (?H)
                 (?I) (DLTA) (DLTA) (?J) (?J) (?J) (?J) (?B) (?B)
                 (?B) (?J) (?J) (?B) (?B) (?B) (PI) (PI) (?B) (?B)
                 (SG) (PI) (PI) (SG) (SG) (SG) (SG) (SG)
 Unable to determine electronic state:  an orbital has unidentified symmetry.
 Alpha  occ. eigenvalues -- -102.74664 -19.73102  -9.89523  -7.62044  -7.62009
 Alpha  occ. eigenvalues --   -7.61283  -1.22576  -0.89746  -0.57344  -0.56631
 Alpha  occ. eigenvalues --   -0.53976  -0.39958  -0.36937
 Alpha virt. eigenvalues --   -0.01509   0.02867   0.03134   0.03216   0.04994
 Alpha virt. eigenvalues --    0.08874   0.09225   0.09626   0.16160   0.16172
 Alpha virt. eigenvalues --    0.20461   0.22235   0.22423   0.25585   0.29680
 Alpha virt. eigenvalues --    0.30137   0.35036   0.38672   0.38681   0.42201
 Alpha virt. eigenvalues --    0.42677   0.42865   0.45804   0.45823   0.46742
 Alpha virt. eigenvalues --    0.47874   0.58018   0.62480   0.63147   0.63584
 Alpha virt. eigenvalues --    0.69970   1.01055   1.13973   1.15284   1.21063
 Alpha virt. eigenvalues --    1.21069   1.24545   1.25617   1.26485   1.30311
 Alpha virt. eigenvalues --    1.30374   1.30707   1.30710   1.40919   1.41387
 Alpha virt. eigenvalues --    1.42995   1.47964   1.47983   1.53905   1.54531
 Alpha virt. eigenvalues --    1.56371   1.90337   1.94461   1.95936   2.02905
 Alpha virt. eigenvalues --    2.50981   3.01923   3.01932   3.04952   3.04968
 Alpha virt. eigenvalues --    3.13853   3.15514   3.27451   3.30716   3.30801
 Alpha virt. eigenvalues --    3.39026   3.39500   3.40806   3.51008   3.51011
 Alpha virt. eigenvalues --    3.56669   3.56672   3.63566   3.82061   3.82064
 Alpha virt. eigenvalues --    3.82768   3.82770   3.86981   3.88730   3.92506
 Alpha virt. eigenvalues --    3.92528   3.98306   4.07769   4.09978   4.13579
 Alpha virt. eigenvalues --    4.13593   4.23025   4.25423   4.33318   4.62991
 Alpha virt. eigenvalues --    4.90858   4.92998   5.19765   5.21988   5.24000
 Alpha virt. eigenvalues --    6.71045   8.43065   8.72490   8.72499   8.73019
 Alpha virt. eigenvalues --    8.73024   8.83657   8.83659   9.10540   9.13970
 Alpha virt. eigenvalues --    9.21411  10.67054  10.67069  10.72445  10.72484
 Alpha virt. eigenvalues --   10.75844  10.77222  10.89445  10.89581  11.05337
 Alpha virt. eigenvalues --   11.41324  11.45557  11.64742  11.88644  11.88905
 Alpha virt. eigenvalues --   12.00899  12.05922  12.45750  13.49620  28.61801
 Alpha virt. eigenvalues --   41.94377  41.95280  42.10991  47.62882  98.38774
 Alpha virt. eigenvalues --  250.62909 524.31028
  Beta  occ. eigenvalues -- -102.74317 -19.71647  -9.89412  -7.61998  -7.61178
  Beta  occ. eigenvalues --   -7.61017  -1.18474  -0.86072  -0.54069  -0.52252
  Beta  occ. eigenvalues --   -0.47515  -0.34995
  Beta virt. eigenvalues --   -0.13001  -0.00732   0.03118   0.03175   0.03214
  Beta virt. eigenvalues --    0.05487   0.08931   0.09667   0.09923   0.16126
  Beta virt. eigenvalues --    0.16185   0.20843   0.21899   0.22327   0.25563
  Beta virt. eigenvalues --    0.29958   0.30317   0.34823   0.38356   0.38453
  Beta virt. eigenvalues --    0.42048   0.42338   0.42892   0.46706   0.46710
  Beta virt. eigenvalues --    0.48285   0.49009   0.57789   0.62446   0.62816
  Beta virt. eigenvalues --    0.63952   0.70430   1.01663   1.15583   1.15607
  Beta virt. eigenvalues --    1.22276   1.22282   1.25355   1.25741   1.26739
  Beta virt. eigenvalues --    1.30818   1.30837   1.30904   1.30922   1.40674
  Beta virt. eigenvalues --    1.42385   1.43235   1.48734   1.48745   1.55176
  Beta virt. eigenvalues --    1.57375   1.57777   1.90227   1.95399   1.96014
  Beta virt. eigenvalues --    2.03270   2.51138   3.02327   3.02410   3.05917
  Beta virt. eigenvalues --    3.06005   3.15265   3.15414   3.28576   3.30858
  Beta virt. eigenvalues --    3.30967   3.39033   3.39788   3.40280   3.51707
  Beta virt. eigenvalues --    3.51745   3.56911   3.56913   3.64605   3.82559
  Beta virt. eigenvalues --    3.82732   3.84955   3.85219   3.88454   3.88676
  Beta virt. eigenvalues --    3.93472   3.96055   3.98136   4.09808   4.10059
  Beta virt. eigenvalues --    4.13907   4.14721   4.24745   4.25661   4.34490
  Beta virt. eigenvalues --    4.64878   4.91453   4.92429   5.21860   5.24946
  Beta virt. eigenvalues --    5.25148   6.71529   8.44329   8.76510   8.76651
  Beta virt. eigenvalues --    8.77713   8.79420   8.86624   8.86885   9.13092
  Beta virt. eigenvalues --    9.16225   9.23410  10.68276  10.68279  10.77032
  Beta virt. eigenvalues --   10.77473  10.84873  10.87447  10.97570  10.99604
  Beta virt. eigenvalues --   11.06655  11.46388  11.53272  11.69969  12.00363
  Beta virt. eigenvalues --   12.04150  12.09180  12.15114  12.50807  13.61098
  Beta virt. eigenvalues --   28.63998  41.95603  41.96903  42.11074  47.71657
  Beta virt. eigenvalues --   98.39574 250.61851 524.30723
          Condensed to atoms (all electrons):
               1          2
     1  Cl  16.660122   0.081875
     2  O    0.081875   8.176127
          Atomic-Atomic Spin Densities.
               1          2
     1  Cl   0.388680  -0.108307
     2  O   -0.108307   0.827935
 Mulliken charges and spin densities:
               1          2
     1  Cl   0.258003   0.280372
     2  O   -0.258003   0.719628
 Sum of Mulliken charges =  -0.00000   1.00000
 Mulliken charges and spin densities with hydrogens summed into heavy atoms:
               1          2
     1  Cl   0.258003   0.280372
     2  O   -0.258003   0.719628
 Electronic spatial extent (au):  <R**2>=             87.2537
 Charge=             -0.0000 electrons
 Dipole moment (field-independent basis, Debye):
    X=              0.0000    Y=             -0.0000    Z=              1.3067  Tot=              1.3067
 Quadrupole moment (field-independent basis, Debye-Ang):
   XX=            -18.1627   YY=            -16.8892   ZZ=            -17.5020
   XY=              0.0000   XZ=              0.0000   YZ=             -0.0000
 Traceless Quadrupole moment (field-independent basis, Debye-Ang):
   XX=             -0.6447   YY=              0.6288   ZZ=              0.0159
   XY=              0.0000   XZ=              0.0000   YZ=             -0.0000
 Octapole moment (field-independent basis, Debye-Ang**2):
  XXX=              0.0000  YYY=             -0.0000  ZZZ=              1.8972  XYY=              0.0000
  XXY=             -0.0000  XXZ=             -0.5074  XZZ=              0.0000  YZZ=             -0.0000
  YYZ=             -0.6963  XYZ=              0.0000
 Hexadecapole moment (field-independent basis, Debye-Ang**3):
 XXXX=            -18.6799 YYYY=            -16.5712 ZZZZ=            -68.3637 XXXY=              0.0000
 XXXZ=              0.0000 YYYX=              0.0000 YYYZ=              0.0000 ZZZX=              0.0000
 ZZZY=              0.0000 XXYY=             -5.8767 XXZZ=            -16.2387 YYZZ=            -14.3812
 XXYZ=             -0.0000 YYXZ=              0.0000 ZZXY=             -0.0000
 N-N= 4.569824860610D+01 E-N=-1.363404404961D+03  KE= 5.344458213740D+02
                          Isotropic Fermi Contact Couplings
        Atom                 a.u.       MegaHertz       Gauss      10(-4) cm-1
     1  Cl(35)             0.00469       2.05507       0.73330       0.68550
     2  O(17)              0.10204     -61.85518     -22.07147     -20.63267
 PrsmSu:  requested number of processors reduced to:  21 ShMem   1 Linda.
 --------------------------------------------------------
       Center         ----  Spin Dipole Couplings  ----
                      3XX-RR        3YY-RR        3ZZ-RR
 --------------------------------------------------------
     1   Atom       -1.000098      2.301057     -1.300959
     2   Atom       -1.578596      3.122133     -1.543536
 --------------------------------------------------------
                        XY            XZ            YZ
 --------------------------------------------------------
     1   Atom        0.000000      0.000000      0.000000
     2   Atom        0.000000      0.000000      0.000000
 --------------------------------------------------------


 ---------------------------------------------------------------------------------
              Anisotropic Spin Dipole Couplings in Principal Axis System
 ---------------------------------------------------------------------------------

       Atom             a.u.   MegaHertz   Gauss  10(-4) cm-1        Axes

              Baa    -1.3010   -68.089   -24.296   -22.712  0.0000  0.0000  1.0000
     1 Cl(35) Bbb    -1.0001   -52.343   -18.677   -17.460  1.0000  0.0000  0.0000
              Bcc     2.3011   120.432    42.973    40.172 -0.0000  1.0000  0.0000
 
              Baa    -1.5786   114.226    40.759    38.102  1.0000  0.0000  0.0000
     2 O(17)  Bbb    -1.5435   111.689    39.853    37.256  0.0000  0.0000  1.0000
              Bcc     3.1221  -225.915   -80.612   -75.357 -0.0000  1.0000  0.0000
 

 ---------------------------------------------------------------------------------

 PrsmSu:  requested number of processors reduced to:  21 ShMem   1 Linda.
 No NMR shielding tensors so no spin-rotation constants.
 Leave Link  601 at Sat Apr 17 12:32:36 2021, MaxMem=   104857600 cpu:             162.7 elap:               3.7
 (Enter /s/ls4/users/knvvv/bin/g16sse/l801.exe)
 DoSCS=F DFT=T ScalE2(SS,OS)=  1.000000  1.000000
 Range of M.O.s used for correlation:     1   145
 NBasis=   145 NAE=    13 NBE=    12 NFC=     0 NFV=     0
 NROrb=    145 NOA=    13 NOB=    12 NVA=   132 NVB=   133

 **** Warning!!: The largest alpha MO coefficient is  0.19349265D+02


 **** Warning!!: The largest beta MO coefficient is  0.19406643D+02

 Leave Link  801 at Sat Apr 17 12:32:36 2021, MaxMem=   104857600 cpu:               3.2 elap:               0.1
 (Enter /s/ls4/users/knvvv/bin/g16sse/l914.exe)
 UHF ground state
 Doing stability rather than CIS.
 Two-electron integrals replicated using symmetry.
 MDV=   104857600 DFT=T DoStab=T Mixed=T DoRPA=F DoScal=F NonHer=F
 Making orbital integer symmetry assigments:
 Orbital symmetries:
 Alpha Orbitals:
       Occupied  (SG) (SG) (SG) (PI) (SG) (PI) (SG) (SG) (?A) (SG)
                 (?A) (?A) (?A)
       Virtual   (SG) (PI) (PI) (SG) (SG) (SG) (PI) (PI) (DLTA)
                 (DLTA) (SG) (PI) (PI) (SG) (PI) (PI) (?B) (?B)
                 (?B) (?B) (PI) (PI) (?B) (?B) (PI) (PI) (SG) (SG)
                 (PI) (PI) (SG) (?C) (PI) (PI) (?C) (?C) (?D) (?D)
                 (?E) (?E) (?E) (?D) (?D) (?F) (PI) (PI) (?F) (?F)
                 (PI) (SG) (PI) (SG) (PI) (PI) (SG) (SG) (DLTA)
                 (DLTA) (?D) (?D) (?D) (?D) (?G) (?G) (?G) (SG)
                 (PI) (PI) (?H) (?H) (PHI) (PHI) (SG) (?I) (?I)
                 (PHI) (PHI) (PI) (PI) (?I) (?I) (?I) (PI) (PI)
                 (?J) (?J) (PI) (PI) (?J) (SG) (PI) (PI) (PI) (SG)
                 (PI) (SG) (SG) (?D) (?D) (?K) (?K) (?K) (?K) (?D)
                 (?D) (?K) (DLTA) (DLTA) (?D) (?D) (?D) (?D) (?L)
                 (?L) (?L) (PI) (PI) (?L) (?L) (?L) (PI) (PI) (?L)
                 (SG) (SG) (PI) (PI) (SG) (SG) (SG) (SG) (SG)
 Beta  Orbitals:
       Occupied  (SG) (SG) (SG) (SG) (PI) (PI) (SG) (SG) (SG) (?A)
                 (?A) (?A)
       Virtual   (?A) (SG) (PI) (PI) (?B) (SG) (?B) (?A) (?A) (?B)
                 (?B) (?B) (PI) (PI) (SG) (PI) (PI) (?B) (?B) (?B)
                 (PI) (SG) (PI) (?C) (?C) (PI) (PI) (?C) (SG) (PI)
                 (PI) (SG) (SG) (PI) (PI) (DLTA) (DLTA) (PI) (PI)
                 (?D) (?D) (?D) (PHI) (PHI) (?B) (PI) (PI) (?B)
                 (?B) (?B) (PI) (PI) (SG) (PI) (PI) (SG) (SG) (DLTA)
                 (DLTA) (PHI) (PHI) (PI) (PI) (?E) (?E) (?E) (PI)
                 (SG) (PI) (?F) (?F) (PHI) (PHI) (?G) (?G) (?G)
                 (?H) (?H) (?H) (?H) (?G) (?G) (?G) (PI) (PI) (?G)
                 (?G) (PI) (PI) (?G) (SG) (PI) (PI) (SG) (PI) (PI)
                 (SG) (SG) (?H) (?H) (?I) (?I) (?I) (?I) (?H) (?H)
                 (?I) (DLTA) (DLTA) (?J) (?J) (?J) (?J) (?B) (?B)
                 (?B) (?J) (?J) (?B) (?B) (?B) (PI) (PI) (?B) (?B)
                 (SG) (PI) (PI) (SG) (SG) (SG) (SG) (SG)
    12 initial guesses have been made.
 Convergence on wavefunction:    0.001000000000000
 Davidson Disk Diagonalization:  ConvIn= 1.00D-03 SkipCon=T Conv= 1.00D-03.
 Max sub-space:  2000 roots to seek:    12 dimension of matrix:         3312
 Iteration     1 Dimension    12 NMult     0 NNew     12
 Estimated number of processors is:   20
 CISAX will form     1 AO SS matrices at one time.
 NMat=     1 NSing=     1 JSym2X= 2.
 FoFJK:  IHMeth= 1 ICntrl=       0 DoSepK=F KAlg= 0 I1Cent=           0 FoldK=F
 IRaf= 990000000 NMat=       1 IRICut=       1 DoRegI=T DoRafI=F ISym2E= 2 IDoP0=0 IntGTp=1.
 FoFCou: FMM=F IPFlag=           0 FMFlag=      100000 FMFlg1=           0
         NFxFlg=           0 DoJE=F BraDBF=F KetDBF=F FulRan=T
         wScrn=  0.000000 ICntrl=         0 IOpCl=  1 I1Cent=           0 NGrid=           0
         NMat0=    1 NMatS0=      1 NMatT0=    0 NMatD0=    1 NMtDS0=    0 NMtDT0=    0
 Integrals replicated using symmetry in FoFCou.
 CoulSu:  requested number of processors reduced to:  20 ShMem   1 Linda.
 NMat=     1 NSing=     1 JSym2X= 2.
 CoulSu:  requested number of processors reduced to:  20 ShMem   1 Linda.
 NMat=     1 NSing=     1 JSym2X= 2.
 CoulSu:  requested number of processors reduced to:  20 ShMem   1 Linda.
 NMat=     1 NSing=     1 JSym2X= 2.
 CoulSu:  requested number of processors reduced to:  20 ShMem   1 Linda.
 NMat=     1 NSing=     1 JSym2X= 2.
 CoulSu:  requested number of processors reduced to:  20 ShMem   1 Linda.
 NMat=     1 NSing=     1 JSym2X= 2.
 CoulSu:  requested number of processors reduced to:  20 ShMem   1 Linda.
 NMat=     1 NSing=     1 JSym2X= 2.
 CoulSu:  requested number of processors reduced to:  20 ShMem   1 Linda.
 NMat=     1 NSing=     1 JSym2X= 2.
 CoulSu:  requested number of processors reduced to:  20 ShMem   1 Linda.
 NMat=     1 NSing=     1 JSym2X= 2.
 CoulSu:  requested number of processors reduced to:  20 ShMem   1 Linda.
 NMat=     1 NSing=     1 JSym2X= 2.
 CoulSu:  requested number of processors reduced to:  20 ShMem   1 Linda.
 NMat=     1 NSing=     1 JSym2X= 2.
 CoulSu:  requested number of processors reduced to:  20 ShMem   1 Linda.
 NMat=     1 NSing=     1 JSym2X= 2.
 CoulSu:  requested number of processors reduced to:  20 ShMem   1 Linda.
 Excitation Energies [eV] at current iteration:
 Root      1 :     0.354842757878876
 Root      2 :     4.944617029957785
 Root      3 :     5.223475847915431
 Root      4 :     6.092011840316696
 Root      5 :     6.458894097101379
 Root      6 :     7.953577354796286
 Root      7 :     8.008603324743703
 Root      8 :     8.289874940409657
 Root      9 :     8.395862477501735
 Root     10 :     8.522353879041752
 Root     11 :     8.770842026735711
 Root     12 :     9.149413780438653
 Iteration     2 Dimension    24 NMult    12 NNew     12
 Estimated number of processors is:   20
 CISAX will form     1 AO SS matrices at one time.
 NMat=     1 NSing=     1 JSym2X= 2.
 CoulSu:  requested number of processors reduced to:  20 ShMem   1 Linda.
 NMat=     1 NSing=     1 JSym2X= 2.
 CoulSu:  requested number of processors reduced to:  20 ShMem   1 Linda.
 NMat=     1 NSing=     1 JSym2X= 2.
 CoulSu:  requested number of processors reduced to:  20 ShMem   1 Linda.
 NMat=     1 NSing=     1 JSym2X= 2.
 CoulSu:  requested number of processors reduced to:  20 ShMem   1 Linda.
 NMat=     1 NSing=     1 JSym2X= 2.
 CoulSu:  requested number of processors reduced to:  20 ShMem   1 Linda.
 NMat=     1 NSing=     1 JSym2X= 2.
 CoulSu:  requested number of processors reduced to:  20 ShMem   1 Linda.
 NMat=     1 NSing=     1 JSym2X= 2.
 CoulSu:  requested number of processors reduced to:  20 ShMem   1 Linda.
 NMat=     1 NSing=     1 JSym2X= 2.
 CoulSu:  requested number of processors reduced to:  20 ShMem   1 Linda.
 NMat=     1 NSing=     1 JSym2X= 2.
 CoulSu:  requested number of processors reduced to:  20 ShMem   1 Linda.
 NMat=     1 NSing=     1 JSym2X= 2.
 CoulSu:  requested number of processors reduced to:  20 ShMem   1 Linda.
 NMat=     1 NSing=     1 JSym2X= 2.
 CoulSu:  requested number of processors reduced to:  20 ShMem   1 Linda.
 NMat=     1 NSing=     1 JSym2X= 2.
 CoulSu:  requested number of processors reduced to:  20 ShMem   1 Linda.
 Root      1 not converged, maximum delta is    0.056014779856704
 Excitation Energies [eV] at current iteration:
 Root      1 :     0.007467332645192   Change is   -0.347375425233684
 Root      2 :     3.713851273977542   Change is   -1.230765755980243
 Root      3 :     4.120759886328440   Change is   -3.832817468467845
 Root      4 :     4.979131415778824   Change is   -0.244344432136607
 Root      5 :     5.464730044203915   Change is   -0.627281796112781
 Root      6 :     5.609875421832650   Change is   -0.849018675268729
 Root      7 :     7.788373432576490   Change is   -0.220229892167212
 Root      8 :     8.208912643221499   Change is   -0.080962297188158
 Root      9 :     8.269306633741239   Change is   -0.126555843760495
 Root     10 :     8.293377998680079   Change is   -0.228975880361674
 Root     11 :     8.673107080288872   Change is   -0.097734946446838
 Root     12 :     8.864326486318610   Change is   -0.285087294120042
 Iteration     3 Dimension    27 NMult    24 NNew      3
 Estimated number of processors is:   20
 CISAX will form     1 AO SS matrices at one time.
 NMat=     1 NSing=     1 JSym2X= 2.
 CoulSu:  requested number of processors reduced to:  20 ShMem   1 Linda.
 NMat=     1 NSing=     1 JSym2X= 2.
 CoulSu:  requested number of processors reduced to:  20 ShMem   1 Linda.
 NMat=     1 NSing=     1 JSym2X= 2.
 CoulSu:  requested number of processors reduced to:  20 ShMem   1 Linda.
 Root      1 not converged, maximum delta is    0.005362366051889
 Excitation Energies [eV] at current iteration:
 Root      1 :     0.000067700760505   Change is   -0.007399631884687
 Root      2 :     3.686201628186699   Change is   -0.027649645790843
 Root      3 :     3.868422080011495   Change is   -0.252337806316945
 Iteration     4 Dimension    30 NMult    27 NNew      3
 Estimated number of processors is:   20
 CISAX will form     1 AO SS matrices at one time.
 NMat=     1 NSing=     1 JSym2X= 2.
 CoulSu:  requested number of processors reduced to:  20 ShMem   1 Linda.
 NMat=     1 NSing=     1 JSym2X= 2.
 CoulSu:  requested number of processors reduced to:  20 ShMem   1 Linda.
 NMat=     1 NSing=     1 JSym2X= 2.
 CoulSu:  requested number of processors reduced to:  20 ShMem   1 Linda.
 Root      1 has converged.
 Excitation Energies [eV] at current iteration:
 Root      1 :    -0.000012891526339   Change is   -0.000080592286843
 Root      2 :     3.684145672355593   Change is   -0.002055955831106
 Root      3 :     3.855365739371237   Change is   -0.013056340640258
 Convergence achieved on expansion vectors.
 ***********************************************************************
 Stability analysis using <AA,BB:AA,BB> singles matrix:
 ***********************************************************************
 1PDM for each excited state written to RWF  633
 Ground to excited state transition densities written to RWF  633

 Eigenvectors of the stability matrix:
 
 Excited state symmetry could not be determined.
 Eigenvector   1:  2.015-?Sym  Eigenvalue=-0.0000005  <S**2>=0.765
     10B -> 13B       -0.21173
     12B -> 13B        0.96813
 The wavefunction is stable under the perturbations considered.
 Leave Link  914 at Sat Apr 17 12:33:48 2021, MaxMem=   104857600 cpu:            2852.9 elap:              72.1
 (Enter /s/ls4/users/knvvv/bin/g16sse/l508.exe)
 The wavefunction is already stable.
 Leave Link  508 at Sat Apr 17 12:33:48 2021, MaxMem=   104857600 cpu:               2.2 elap:               0.1
 (Enter /s/ls4/users/knvvv/bin/g16sse/l601.exe)
 Copying SCF densities to generalized density rwf, IOpCl= 1 IROHF=0.

 **********************************************************************

            Population analysis using the SCF density.

 **********************************************************************

 Orbital symmetries:
 Alpha Orbitals:
       Occupied  (SG) (SG) (SG) (PI) (SG) (PI) (SG) (SG) (?A) (SG)
                 (?A) (?A) (?A)
       Virtual   (SG) (PI) (PI) (SG) (SG) (SG) (PI) (PI) (DLTA)
                 (DLTA) (SG) (PI) (PI) (SG) (PI) (PI) (?B) (?B)
                 (?B) (?B) (PI) (PI) (?B) (?B) (PI) (PI) (SG) (SG)
                 (PI) (PI) (SG) (?C) (PI) (PI) (?C) (?C) (?D) (?D)
                 (?E) (?E) (?E) (?D) (?D) (?F) (PI) (PI) (?F) (?F)
                 (PI) (SG) (PI) (SG) (PI) (PI) (SG) (SG) (DLTA)
                 (DLTA) (?D) (?D) (?D) (?D) (?G) (?G) (?G) (SG)
                 (PI) (PI) (?H) (?H) (PHI) (PHI) (SG) (?I) (?I)
                 (PHI) (PHI) (PI) (PI) (?I) (?I) (?I) (PI) (PI)
                 (?J) (?J) (PI) (PI) (?J) (SG) (PI) (PI) (PI) (SG)
                 (PI) (SG) (SG) (?D) (?D) (?K) (?K) (?K) (?K) (?D)
                 (?D) (?K) (DLTA) (DLTA) (?D) (?D) (?D) (?D) (?L)
                 (?L) (?L) (PI) (PI) (?L) (?L) (?L) (PI) (PI) (?L)
                 (SG) (SG) (PI) (PI) (SG) (SG) (SG) (SG) (SG)
 Beta  Orbitals:
       Occupied  (SG) (SG) (SG) (SG) (PI) (PI) (SG) (SG) (SG) (?A)
                 (?A) (?A)
       Virtual   (?A) (SG) (PI) (PI) (?B) (SG) (?B) (?A) (?A) (?B)
                 (?B) (?B) (PI) (PI) (SG) (PI) (PI) (?B) (?B) (?B)
                 (PI) (SG) (PI) (?C) (?C) (PI) (PI) (?C) (SG) (PI)
                 (PI) (SG) (SG) (PI) (PI) (DLTA) (DLTA) (PI) (PI)
                 (?D) (?D) (?D) (PHI) (PHI) (?B) (PI) (PI) (?B)
                 (?B) (?B) (PI) (PI) (SG) (PI) (PI) (SG) (SG) (DLTA)
                 (DLTA) (PHI) (PHI) (PI) (PI) (?E) (?E) (?E) (PI)
                 (SG) (PI) (?F) (?F) (PHI) (PHI) (?G) (?G) (?G)
                 (?H) (?H) (?H) (?H) (?G) (?G) (?G) (PI) (PI) (?G)
                 (?G) (PI) (PI) (?G) (SG) (PI) (PI) (SG) (PI) (PI)
                 (SG) (SG) (?H) (?H) (?I) (?I) (?I) (?I) (?H) (?H)
                 (?I) (DLTA) (DLTA) (?J) (?J) (?J) (?J) (?B) (?B)
                 (?B) (?J) (?J) (?B) (?B) (?B) (PI) (PI) (?B) (?B)
                 (SG) (PI) (PI) (SG) (SG) (SG) (SG) (SG)
 Unable to determine electronic state:  an orbital has unidentified symmetry.
 Alpha  occ. eigenvalues -- -102.74664 -19.73102  -9.89523  -7.62044  -7.62009
 Alpha  occ. eigenvalues --   -7.61283  -1.22576  -0.89746  -0.57344  -0.56631
 Alpha  occ. eigenvalues --   -0.53976  -0.39958  -0.36937
 Alpha virt. eigenvalues --   -0.01509   0.02867   0.03134   0.03216   0.04994
 Alpha virt. eigenvalues --    0.08874   0.09225   0.09626   0.16160   0.16172
 Alpha virt. eigenvalues --    0.20461   0.22235   0.22423   0.25585   0.29680
 Alpha virt. eigenvalues --    0.30137   0.35036   0.38672   0.38681   0.42201
 Alpha virt. eigenvalues --    0.42677   0.42865   0.45804   0.45823   0.46742
 Alpha virt. eigenvalues --    0.47874   0.58018   0.62480   0.63147   0.63584
 Alpha virt. eigenvalues --    0.69970   1.01055   1.13973   1.15284   1.21063
 Alpha virt. eigenvalues --    1.21069   1.24545   1.25617   1.26485   1.30311
 Alpha virt. eigenvalues --    1.30374   1.30707   1.30710   1.40919   1.41387
 Alpha virt. eigenvalues --    1.42995   1.47964   1.47983   1.53905   1.54531
 Alpha virt. eigenvalues --    1.56371   1.90337   1.94461   1.95936   2.02905
 Alpha virt. eigenvalues --    2.50981   3.01923   3.01932   3.04952   3.04968
 Alpha virt. eigenvalues --    3.13853   3.15514   3.27451   3.30716   3.30801
 Alpha virt. eigenvalues --    3.39026   3.39500   3.40806   3.51008   3.51011
 Alpha virt. eigenvalues --    3.56669   3.56672   3.63566   3.82061   3.82064
 Alpha virt. eigenvalues --    3.82768   3.82770   3.86981   3.88730   3.92506
 Alpha virt. eigenvalues --    3.92528   3.98306   4.07769   4.09978   4.13579
 Alpha virt. eigenvalues --    4.13593   4.23025   4.25423   4.33318   4.62991
 Alpha virt. eigenvalues --    4.90858   4.92998   5.19765   5.21988   5.24000
 Alpha virt. eigenvalues --    6.71045   8.43065   8.72490   8.72499   8.73019
 Alpha virt. eigenvalues --    8.73024   8.83657   8.83659   9.10540   9.13970
 Alpha virt. eigenvalues --    9.21411  10.67054  10.67069  10.72445  10.72484
 Alpha virt. eigenvalues --   10.75844  10.77222  10.89445  10.89581  11.05337
 Alpha virt. eigenvalues --   11.41324  11.45557  11.64742  11.88644  11.88905
 Alpha virt. eigenvalues --   12.00899  12.05922  12.45750  13.49620  28.61801
 Alpha virt. eigenvalues --   41.94377  41.95280  42.10991  47.62882  98.38774
 Alpha virt. eigenvalues --  250.62909 524.31028
  Beta  occ. eigenvalues -- -102.74317 -19.71647  -9.89412  -7.61998  -7.61178
  Beta  occ. eigenvalues --   -7.61017  -1.18474  -0.86072  -0.54069  -0.52252
  Beta  occ. eigenvalues --   -0.47515  -0.34995
  Beta virt. eigenvalues --   -0.13001  -0.00732   0.03118   0.03175   0.03214
  Beta virt. eigenvalues --    0.05487   0.08931   0.09667   0.09923   0.16126
  Beta virt. eigenvalues --    0.16185   0.20843   0.21899   0.22327   0.25563
  Beta virt. eigenvalues --    0.29958   0.30317   0.34823   0.38356   0.38453
  Beta virt. eigenvalues --    0.42048   0.42338   0.42892   0.46706   0.46710
  Beta virt. eigenvalues --    0.48285   0.49009   0.57789   0.62446   0.62816
  Beta virt. eigenvalues --    0.63952   0.70430   1.01663   1.15583   1.15607
  Beta virt. eigenvalues --    1.22276   1.22282   1.25355   1.25741   1.26739
  Beta virt. eigenvalues --    1.30818   1.30837   1.30904   1.30922   1.40674
  Beta virt. eigenvalues --    1.42385   1.43235   1.48734   1.48745   1.55176
  Beta virt. eigenvalues --    1.57375   1.57777   1.90227   1.95399   1.96014
  Beta virt. eigenvalues --    2.03270   2.51138   3.02327   3.02410   3.05917
  Beta virt. eigenvalues --    3.06005   3.15265   3.15414   3.28576   3.30858
  Beta virt. eigenvalues --    3.30967   3.39033   3.39788   3.40280   3.51707
  Beta virt. eigenvalues --    3.51745   3.56911   3.56913   3.64605   3.82559
  Beta virt. eigenvalues --    3.82732   3.84955   3.85219   3.88454   3.88676
  Beta virt. eigenvalues --    3.93472   3.96055   3.98136   4.09808   4.10059
  Beta virt. eigenvalues --    4.13907   4.14721   4.24745   4.25661   4.34490
  Beta virt. eigenvalues --    4.64878   4.91453   4.92429   5.21860   5.24946
  Beta virt. eigenvalues --    5.25148   6.71529   8.44329   8.76510   8.76651
  Beta virt. eigenvalues --    8.77713   8.79420   8.86624   8.86885   9.13092
  Beta virt. eigenvalues --    9.16225   9.23410  10.68276  10.68279  10.77032
  Beta virt. eigenvalues --   10.77473  10.84873  10.87447  10.97570  10.99604
  Beta virt. eigenvalues --   11.06655  11.46388  11.53272  11.69969  12.00363
  Beta virt. eigenvalues --   12.04150  12.09180  12.15114  12.50807  13.61098
  Beta virt. eigenvalues --   28.63998  41.95603  41.96903  42.11074  47.71657
  Beta virt. eigenvalues --   98.39574 250.61851 524.30723
          Condensed to atoms (all electrons):
               1          2
     1  Cl  16.660122   0.081875
     2  O    0.081875   8.176127
          Atomic-Atomic Spin Densities.
               1          2
     1  Cl   0.388680  -0.108307
     2  O   -0.108307   0.827935
 Mulliken charges and spin densities:
               1          2
     1  Cl   0.258003   0.280372
     2  O   -0.258003   0.719628
 Sum of Mulliken charges =  -0.00000   1.00000
 Mulliken charges and spin densities with hydrogens summed into heavy atoms:
               1          2
     1  Cl   0.258003   0.280372
     2  O   -0.258003   0.719628
 Electronic spatial extent (au):  <R**2>=             87.2537
 Charge=             -0.0000 electrons
 Dipole moment (field-independent basis, Debye):
    X=              0.0000    Y=             -0.0000    Z=              1.3067  Tot=              1.3067
 Quadrupole moment (field-independent basis, Debye-Ang):
   XX=            -18.1627   YY=            -16.8892   ZZ=            -17.5020
   XY=              0.0000   XZ=              0.0000   YZ=             -0.0000
 Traceless Quadrupole moment (field-independent basis, Debye-Ang):
   XX=             -0.6447   YY=              0.6288   ZZ=              0.0159
   XY=              0.0000   XZ=              0.0000   YZ=             -0.0000
 Octapole moment (field-independent basis, Debye-Ang**2):
  XXX=              0.0000  YYY=             -0.0000  ZZZ=              1.8972  XYY=              0.0000
  XXY=             -0.0000  XXZ=             -0.5074  XZZ=              0.0000  YZZ=             -0.0000
  YYZ=             -0.6963  XYZ=              0.0000
 Hexadecapole moment (field-independent basis, Debye-Ang**3):
 XXXX=            -18.6799 YYYY=            -16.5712 ZZZZ=            -68.3637 XXXY=              0.0000
 XXXZ=              0.0000 YYYX=              0.0000 YYYZ=              0.0000 ZZZX=              0.0000
 ZZZY=              0.0000 XXYY=             -5.8767 XXZZ=            -16.2387 YYZZ=            -14.3812
 XXYZ=             -0.0000 YYXZ=              0.0000 ZZXY=             -0.0000
 N-N= 4.569824860610D+01 E-N=-1.363404404961D+03  KE= 5.344458213740D+02
                          Isotropic Fermi Contact Couplings
        Atom                 a.u.       MegaHertz       Gauss      10(-4) cm-1
     1  Cl(35)             0.00469       2.05507       0.73330       0.68550
     2  O(17)              0.10204     -61.85518     -22.07147     -20.63267
 PrsmSu:  requested number of processors reduced to:  21 ShMem   1 Linda.
 --------------------------------------------------------
       Center         ----  Spin Dipole Couplings  ----
                      3XX-RR        3YY-RR        3ZZ-RR
 --------------------------------------------------------
     1   Atom       -1.000098      2.301057     -1.300959
     2   Atom       -1.578596      3.122133     -1.543536
 --------------------------------------------------------
                        XY            XZ            YZ
 --------------------------------------------------------
     1   Atom        0.000000      0.000000      0.000000
     2   Atom        0.000000      0.000000      0.000000
 --------------------------------------------------------


 ---------------------------------------------------------------------------------
              Anisotropic Spin Dipole Couplings in Principal Axis System
 ---------------------------------------------------------------------------------

       Atom             a.u.   MegaHertz   Gauss  10(-4) cm-1        Axes

              Baa    -1.3010   -68.089   -24.296   -22.712  0.0000  0.0000  1.0000
     1 Cl(35) Bbb    -1.0001   -52.343   -18.677   -17.460  1.0000  0.0000  0.0000
              Bcc     2.3011   120.432    42.973    40.172 -0.0000  1.0000  0.0000
 
              Baa    -1.5786   114.226    40.759    38.102  1.0000  0.0000  0.0000
     2 O(17)  Bbb    -1.5435   111.689    39.853    37.256  0.0000  0.0000  1.0000
              Bcc     3.1221  -225.915   -80.612   -75.357 -0.0000  1.0000  0.0000
 

 ---------------------------------------------------------------------------------

 PrsmSu:  requested number of processors reduced to:  21 ShMem   1 Linda.
 No NMR shielding tensors so no spin-rotation constants.
 Leave Link  601 at Sat Apr 17 12:33:51 2021, MaxMem=   104857600 cpu:             155.4 elap:               3.5
 (Enter /s/ls4/users/knvvv/bin/g16sse/l9999.exe)

 Test job not archived.
 1\1\GINC-N146\Stability\UM062X\Gen\Cl1O1(2)\KNVVV\17-Apr-2021\0\\#P M0
 62X/GEN Integral=UltraFineGrid SCF=NoSymm Stable=(RExt, Opt) IOp(1/33=
 1)\\Database calculations.\\0,2\Cl,0,0.,0.,0.\O,0,0.,0.,1.57485468\\Ve
 rsion=ES64L-G16RevA.03\HF=-535.3227875\S2=0.75677\S2-1=0.\S2A=0.750026
 \RMSD=1.722e-09\Dipole=0.,0.,-0.514104\Quadrupole=-0.4793455,0.4674922
 ,0.0118533,0.,0.,0.\PG=C*V [C*(O1Cl1)]\\@


 IF YOU GIVE EVERYONE A PIECE OF YOUR MIND,
 PRETTY SOON IT WILL BE ALL GONE.
 Job cpu time:       0 days  2 hours 52 minutes 47.3 seconds.
 Elapsed time:       0 days  0 hours  3 minutes 58.1 seconds.
 File lengths (MBytes):  RWF=    103 Int=      0 D2E=      0 Chk=      4 Scr=      1
 Normal termination of Gaussian 16 at Sat Apr 17 12:33:52 2021.
