 Entering Gaussian System, Link 0=/s/ls4/users/knvvv/bin/g16sse/g16
 Input=data/database/M062X--def2-QZVPPD--17_Isomer7_mon10_FmH2O10.gjf
 Output=data/database/M062X--def2-QZVPPD--17_Isomer7_mon10_FmH2O10.log
 Initial command:
 /s/ls4/users/knvvv/bin/g16sse/l1.exe "/s/ls4/users/knvvv/bin/scratch/Gau-16717.inp" -scrdir="/s/ls4/users/knvvv/bin/scratch/"
 Entering Link 1 = /s/ls4/users/knvvv/bin/g16sse/l1.exe PID=     16718.
  
 Copyright (c) 1988,1990,1992,1993,1995,1998,2003,2009,2016,
            Gaussian, Inc.  All Rights Reserved.
  
 This is part of the Gaussian(R) 16 program.  It is based on
 the Gaussian(R) 09 system (copyright 2009, Gaussian, Inc.),
 the Gaussian(R) 03 system (copyright 2003, Gaussian, Inc.),
 the Gaussian(R) 98 system (copyright 1998, Gaussian, Inc.),
 the Gaussian(R) 94 system (copyright 1995, Gaussian, Inc.),
 the Gaussian 92(TM) system (copyright 1992, Gaussian, Inc.),
 the Gaussian 90(TM) system (copyright 1990, Gaussian, Inc.),
 the Gaussian 88(TM) system (copyright 1988, Gaussian, Inc.),
 the Gaussian 86(TM) system (copyright 1986, Carnegie Mellon
 University), and the Gaussian 82(TM) system (copyright 1983,
 Carnegie Mellon University). Gaussian is a federally registered
 trademark of Gaussian, Inc.
  
 This software contains proprietary and confidential information,
 including trade secrets, belonging to Gaussian, Inc.
  
 This software is provided under written license and may be
 used, copied, transmitted, or stored only in accord with that
 written license.
  
 The following legend is applicable only to US Government
 contracts under FAR:
  
                    RESTRICTED RIGHTS LEGEND
  
 Use, reproduction and disclosure by the US Government is
 subject to restrictions as set forth in subparagraphs (a)
 and (c) of the Commercial Computer Software - Restricted
 Rights clause in FAR 52.227-19.
  
 Gaussian, Inc.
 340 Quinnipiac St., Bldg. 40, Wallingford CT 06492
  
  
 ---------------------------------------------------------------
 Warning -- This program may not be used in any manner that
 competes with the business of Gaussian, Inc. or will provide
 assistance to any competitor of Gaussian, Inc.  The licensee
 of this program is prohibited from giving any competitor of
 Gaussian, Inc. access to this program.  By using this program,
 the user acknowledges that Gaussian, Inc. is engaged in the
 business of creating and licensing software in the field of
 computational chemistry and represents and warrants to the
 licensee that it is not a competitor of Gaussian, Inc. and that
 it will not use this program in any manner prohibited above.
 ---------------------------------------------------------------
  

 Cite this work as:
 Gaussian 16, Revision A.03,
 M. J. Frisch, G. W. Trucks, H. B. Schlegel, G. E. Scuseria, 
 M. A. Robb, J. R. Cheeseman, G. Scalmani, V. Barone, 
 G. A. Petersson, H. Nakatsuji, X. Li, M. Caricato, A. V. Marenich, 
 J. Bloino, B. G. Janesko, R. Gomperts, B. Mennucci, H. P. Hratchian, 
 J. V. Ortiz, A. F. Izmaylov, J. L. Sonnenberg, D. Williams-Young, 
 F. Ding, F. Lipparini, F. Egidi, J. Goings, B. Peng, A. Petrone, 
 T. Henderson, D. Ranasinghe, V. G. Zakrzewski, J. Gao, N. Rega, 
 G. Zheng, W. Liang, M. Hada, M. Ehara, K. Toyota, R. Fukuda, 
 J. Hasegawa, M. Ishida, T. Nakajima, Y. Honda, O. Kitao, H. Nakai, 
 T. Vreven, K. Throssell, J. A. Montgomery, Jr., J. E. Peralta, 
 F. Ogliaro, M. J. Bearpark, J. J. Heyd, E. N. Brothers, K. N. Kudin, 
 V. N. Staroverov, T. A. Keith, R. Kobayashi, J. Normand, 
 K. Raghavachari, A. P. Rendell, J. C. Burant, S. S. Iyengar, 
 J. Tomasi, M. Cossi, J. M. Millam, M. Klene, C. Adamo, R. Cammi, 
 J. W. Ochterski, R. L. Martin, K. Morokuma, O. Farkas, 
 J. B. Foresman, and D. J. Fox, Gaussian, Inc., Wallingford CT, 2016.
 
 ******************************************
 Gaussian 16:  ES64L-G16RevA.03 25-Dec-2016
                17-Apr-2021 
 ******************************************
 %RWF=temp10_11296,70GB
 %nprocshared=48
 Will use up to   48 processors via shared memory.
 Default route: MaxDisk=80GB
 ----------------------------------------------------------------------
 #P M062X/GEN Integral=UltraFineGrid SCF=NoSymm Stable=(RExt, Opt) IOp(
 1/33=1)
 ----------------------------------------------------------------------
 1/33=1,38=1,172=1/1;
 2/12=2,17=6,18=5,40=1/2;
 3/5=7,11=2,25=1,30=1,74=-55,75=-5/1,2,3;
 4/9=2/1;
 5/5=2,38=5/2;
 6/7=2,8=2,9=2,10=2,28=1/1;
 8/6=1,10=90,11=11/1;
 9/8=-3,42=1,46=1/14;
 5/5=2,8=3,17=40,38=5/8(-2);
 6/7=2,8=2,9=2,10=2,28=1/1;
 99/5=1,9=1/99;
 Leave Link    1 at Sat Apr 17 13:07:52 2021, MaxMem=           0 cpu:              11.0 elap:               0.3
 (Enter /s/ls4/users/knvvv/bin/g16sse/l101.exe)
 ONIOM data not found on unit 2.
 ----------------------
 Database calculations.
 ----------------------
 TstMul:  ICh=     0
 TstMul:  Mul=     1
 TstMul:  ICh=     0
 TstMul:  Mul=     1
 Symbolic Z-matrix:
 Charge =  0 Multiplicity = 1
 O                     0.62426  -1.3725   -4.06237 
 H                     1.0055   -0.92777  -3.26814 
 H                     0.28638  -0.62104  -4.60166 
 
 RdStrC is calling ZToCFu for IStruc=1 NZ=     3.
 PrtBox:  NBox=     1 Levels=  1 BoxLen=    8.00 SMaxX=        2.52
          Shift=           -0.541187            2.593640            8.695875
 Box      1 Number                   0 centers from      1 to      3:
 After GenITR:
 ITRead=  0  0  0
 MicOpt= -1 -1 -1
 ITRead=  0  0  0
 MicOpt= -1 -1 -1
 NAtoms=      3 NQM=        3 NQMF=       0 NMMI=      0 NMMIF=      0
                NMic=       0 NMicF=      0.
                    Isotopes and Nuclear Properties:
 (Nuclear quadrupole moments (NQMom) in fm**2, nuclear magnetic moments (NMagM)
  in nuclear magnetons)

  Atom         1           2           3
 IAtWgt=          16           1           1
 AtmWgt=  15.9949146   1.0078250   1.0078250
 NucSpn=           0           1           1
 AtZEff=  -0.0000000  -0.0000000  -0.0000000
 NQMom=    0.0000000   0.0000000   0.0000000
 NMagM=    0.0000000   2.7928460   2.7928460
 AtZNuc=   8.0000000   1.0000000   1.0000000
 No MM parameters found.
 Leave Link  101 at Sat Apr 17 13:07:52 2021, MaxMem=   104857600 cpu:               6.9 elap:               0.2
 (Enter /s/ls4/users/knvvv/bin/g16sse/l202.exe)
                          Input orientation:                          
 ---------------------------------------------------------------------
 Center     Atomic      Atomic             Coordinates (Angstroms)
 Number     Number       Type             X           Y           Z
 ---------------------------------------------------------------------
      1          8           0        0.624260   -1.372495   -4.062369
      2          1           0        1.005502   -0.927772   -3.268140
      3          1           0        0.286384   -0.621037   -4.601659
 ---------------------------------------------------------------------
                    Distance matrix (angstroms):
                    1          2          3
     1  O    0.000000
     2  H    0.986876   0.000000
     3  H    0.984725   1.545798   0.000000
 Stoichiometry    H2O
 Framework group  CS[SG(H2O)]
 Deg. of freedom     3
 Full point group                 CS      NOp   2
 Largest Abelian subgroup         CS      NOp   2
 Largest concise Abelian subgroup C1      NOp   1
                         Standard orientation:                         
 ---------------------------------------------------------------------
 Center     Atomic      Atomic             Coordinates (Angstroms)
 Number     Number       Type             X           Y           Z
 ---------------------------------------------------------------------
      1          8           0       -0.000000    0.122382    0.000000
      2          1           0        0.772897   -0.491259    0.000000
      3          1           0       -0.772897   -0.487793   -0.000000
 ---------------------------------------------------------------------
 Rotational constants (GHZ):         754.0163048         419.7146208         269.6288055
 Leave Link  202 at Sat Apr 17 13:07:52 2021, MaxMem=   104857600 cpu:               6.8 elap:               0.2
 (Enter /s/ls4/users/knvvv/bin/g16sse/l301.exe)
 General basis read from cards:  (5D, 7F)
 Centers:       2      3
 S 4 1.00
     Exponent=  1.9069169000D+02 Coefficients=  7.0815167000D-04
     Exponent=  2.8605532000D+01 Coefficients=  5.4678827000D-03
     Exponent=  6.5095943000D+00 Coefficients=  2.7966605000D-02
     Exponent=  1.8412455000D+00 Coefficients=  1.0764538000D-01
 S 1 1.00
     Exponent=  5.9853725000D-01 Coefficients=  1.0000000000D+00
 S 1 1.00
     Exponent=  2.1397624000D-01 Coefficients=  1.0000000000D+00
 S 1 1.00
     Exponent=  8.0316286000D-02 Coefficients=  1.0000000000D+00
 P 1 1.00
     Exponent=  2.2920000000D+00 Coefficients=  1.0000000000D+00
 P 1 1.00
     Exponent=  8.3800000000D-01 Coefficients=  1.0000000000D+00
 P 1 1.00
     Exponent=  2.9200000000D-01 Coefficients=  1.0000000000D+00
 P 1 1.00
     Exponent=  8.4063199228D-02 Coefficients=  1.0000000000D+00
 D 1 1.00
     Exponent=  2.0620000000D+00 Coefficients=  1.0000000000D+00
 D 1 1.00
     Exponent=  6.6200000000D-01 Coefficients=  1.0000000000D+00
 F 1 1.00
     Exponent=  1.3970000000D+00 Coefficients=  1.0000000000D+00
 ****
 Centers:       1
 S 8 1.00
     Exponent=  1.1650646908D+05 Coefficients=  4.0383857939D-05
     Exponent=  1.7504349724D+04 Coefficients=  3.1255139004D-04
     Exponent=  3.9934513230D+03 Coefficients=  1.6341473495D-03
     Exponent=  1.1330063186D+03 Coefficients=  6.8283224757D-03
     Exponent=  3.6999569594D+02 Coefficients=  2.4124410221D-02
     Exponent=  1.3362074349D+02 Coefficients=  7.2730206154D-02
     Exponent=  5.2035643649D+01 Coefficients=  1.7934429892D-01
     Exponent=  2.1461939313D+01 Coefficients=  3.3059588895D-01
 S 2 1.00
     Exponent=  8.9835051252D+01 Coefficients=  9.6468652996D-02
     Exponent=  2.6428010844D+01 Coefficients=  9.4117481120D-01
 S 1 1.00
     Exponent=  9.2822824649D+00 Coefficients=  1.0000000000D+00
 S 1 1.00
     Exponent=  4.0947728533D+00 Coefficients=  1.0000000000D+00
 S 1 1.00
     Exponent=  1.3255349078D+00 Coefficients=  1.0000000000D+00
 S 1 1.00
     Exponent=  5.1877230787D-01 Coefficients=  1.0000000000D+00
 S 1 1.00
     Exponent=  1.9772676454D-01 Coefficients=  1.0000000000D+00
 S 1 1.00
     Exponent=  6.9638535104D-02 Coefficients=  1.0000000000D+00
 P 5 1.00
     Exponent=  1.9115255810D+02 Coefficients=  2.5115697705D-03
     Exponent=  4.5233356739D+01 Coefficients=  2.0039240864D-02
     Exponent=  1.4353465922D+01 Coefficients=  9.3609064762D-02
     Exponent=  5.2422371832D+00 Coefficients=  3.0618127124D-01
     Exponent=  2.0792418599D+00 Coefficients=  6.7810501439D-01
 P 1 1.00
     Exponent=  8.4282371424D-01 Coefficients=  1.0000000000D+00
 P 1 1.00
     Exponent=  3.3617694891D-01 Coefficients=  1.0000000000D+00
 P 1 1.00
     Exponent=  1.2863997974D-01 Coefficients=  1.0000000000D+00
 P 1 1.00
     Exponent=  4.3598162776D-02 Coefficients=  1.0000000000D+00
 D 1 1.00
     Exponent=  3.7750000000D+00 Coefficients=  1.0000000000D+00
 D 1 1.00
     Exponent=  1.3000000000D+00 Coefficients=  1.0000000000D+00
 D 1 1.00
     Exponent=  4.4400000000D-01 Coefficients=  1.0000000000D+00
 D 1 1.00
     Exponent=  1.2546378695D-01 Coefficients=  1.0000000000D+00
 F 1 1.00
     Exponent=  2.6660000000D+00 Coefficients=  1.0000000000D+00
 F 1 1.00
     Exponent=  8.5900000000D-01 Coefficients=  1.0000000000D+00
 G 1 1.00
     Exponent=  1.8460000000D+00 Coefficients=  1.0000000000D+00
 ****
 Ernie: Thresh=  0.10000D-02 Tol=  0.10000D-05 Strict=F.
 There are   107 symmetry adapted cartesian basis functions of A'  symmetry.
 There are    51 symmetry adapted cartesian basis functions of A"  symmetry.
 There are    87 symmetry adapted basis functions of A'  symmetry.
 There are    45 symmetry adapted basis functions of A"  symmetry.
   132 basis functions,   184 primitive gaussians,   158 cartesian basis functions
     5 alpha electrons        5 beta electrons
       nuclear repulsion energy         8.9311367918 Hartrees.
 IExCor= 4336 DFT=T Ex+Corr=M062X ExCW=0 ScaHFX=  0.540000
 ScaDFX=  1.000000  1.000000  1.000000  1.000000 ScalE2=  1.000000  1.000000
 IRadAn=      5 IRanWt=     -1 IRanGd=            0 ICorTp=0 IEmpDi=  4
 NAtoms=    3 NActive=    3 NUniq=    3 SFac= 1.00D+00 NAtFMM=   60 NAOKFM=F Big=F
 Integral buffers will be    131072 words long.
 Raffenetti 2 integral format.
 Two-electron integral symmetry is turned on.
 Leave Link  301 at Sat Apr 17 13:07:52 2021, MaxMem=   104857600 cpu:               9.1 elap:               0.2
 (Enter /s/ls4/users/knvvv/bin/g16sse/l302.exe)
 NPDir=0 NMtPBC=     1 NCelOv=     1 NCel=       1 NClECP=     1 NCelD=      1
         NCelK=      1 NCelE2=     1 NClLst=     1 CellRange=     0.0.
 One-electron integrals computed using PRISM.
 One-electron integral symmetry used in STVInt
 PrsmSu:  requested number of processors reduced to:   4 ShMem   1 Linda.
 PrsmSu:  requested number of processors reduced to:  21 ShMem   1 Linda.
 NBasis=   132 RedAO= T EigKep=  1.59D-04  NBF=    87    45
 NBsUse=   132 1.00D-06 EigRej= -1.00D+00 NBFU=    87    45
 Precomputing XC quadrature grid using
 IXCGrd= 4 IRadAn=           5 IRanWt=          -1 IRanGd=           0 AccXCQ= 0.00D+00.
 Generated NRdTot=       0 NPtTot=           0 NUsed=           0 NTot=          32
 NSgBfM=   158   158   158   158   158 MxSgAt=     3 MxSgA2=     3.
 Leave Link  302 at Sat Apr 17 13:07:54 2021, MaxMem=   104857600 cpu:              99.2 elap:               2.2
 (Enter /s/ls4/users/knvvv/bin/g16sse/l303.exe)
 DipDrv:  MaxL=1.
 Leave Link  303 at Sat Apr 17 13:07:55 2021, MaxMem=   104857600 cpu:              26.3 elap:               0.6
 (Enter /s/ls4/users/knvvv/bin/g16sse/l401.exe)
 SCF N**3 symmetry information disabled.
 ExpMin= 4.36D-02 ExpMax= 1.17D+05 ExpMxC= 1.13D+03 IAcc=3 IRadAn=         5 AccDes= 0.00D+00
 Harris functional with IExCor= 1009 and IRadAn=       5 diagonalized for initial guess.
 HarFok:  IExCor= 1009 AccDes= 0.00D+00 IRadAn=         5 IDoV= 1 UseB2=F ITyADJ=14
 ICtDFT=  3500011 ScaDFX=  1.000000  1.000000  1.000000  1.000000
 FoFCou: FMM=F IPFlag=           0 FMFlag=      100000 FMFlg1=           0
         NFxFlg=           0 DoJE=T BraDBF=F KetDBF=T FulRan=T
         wScrn=  0.000000 ICntrl=       500 IOpCl=  0 I1Cent=   200000004 NGrid=           0
         NMat0=    1 NMatS0=      1 NMatT0=    0 NMatD0=    1 NMtDS0=    0 NMtDT0=    0
 Petite list used in FoFCou.
 CoulSu:  requested number of processors reduced to:  21 ShMem   1 Linda.
 CoulSu:  requested number of processors reduced to:  21 ShMem   1 Linda.
 CoulSu:  requested number of processors reduced to:  21 ShMem   1 Linda.
 CoulSu:  requested number of processors reduced to:  21 ShMem   1 Linda.
 Harris En= -76.4288608350464    
 JPrj=0 DoOrth=F DoCkMO=F.
 Initial guess orbital symmetries:
       Occupied  (A') (A') (A') (A') (A")
       Virtual   (A') (A') (A') (A") (A') (A') (A') (A") (A") (A')
                 (A') (A') (A') (A') (A") (A') (A") (A') (A") (A')
                 (A') (A') (A") (A") (A') (A') (A') (A') (A') (A')
                 (A") (A') (A") (A') (A') (A") (A') (A") (A') (A')
                 (A') (A') (A") (A') (A") (A") (A') (A') (A") (A")
                 (A') (A') (A') (A') (A') (A') (A") (A") (A') (A")
                 (A') (A') (A") (A') (A') (A") (A') (A') (A") (A')
                 (A') (A") (A') (A") (A') (A") (A') (A') (A") (A')
                 (A') (A") (A') (A") (A') (A') (A') (A") (A") (A")
                 (A') (A') (A") (A') (A') (A') (A") (A") (A') (A')
                 (A') (A") (A') (A') (A") (A') (A') (A") (A') (A")
                 (A") (A') (A") (A') (A") (A') (A') (A') (A') (A")
                 (A') (A") (A') (A') (A') (A') (A')
 The electronic state of the initial guess is 1-A'.
 Leave Link  401 at Sat Apr 17 13:07:57 2021, MaxMem=   104857600 cpu:              74.2 elap:               1.8
 (Enter /s/ls4/users/knvvv/bin/g16sse/l502.exe)
 Keep R1 ints in memory in symmetry-blocked form, NReq=92806727.
 FoFCou: FMM=F IPFlag=           0 FMFlag=           0 FMFlg1=           0
         NFxFlg=           0 DoJE=F BraDBF=F KetDBF=F FulRan=T
         wScrn=  0.000000 ICntrl=       600 IOpCl=  0 I1Cent=           0 NGrid=           0
         NMat0=    1 NMatS0=   8778 NMatT0=    0 NMatD0=    1 NMtDS0=    0 NMtDT0=    0
 Petite list used in FoFCou.
 CoulSu:  requested number of processors reduced to:  14 ShMem   1 Linda.
 Closed shell SCF:
 Using DIIS extrapolation, IDIIS=  1040.
 NGot=   104857600 LenX=    85286723 LenY=    85261318
 Requested convergence on RMS density matrix=1.00D-08 within 128 cycles.
 Requested convergence on MAX density matrix=1.00D-06.
 Requested convergence on             energy=1.00D-06.
 No special actions if energy rises.

 Cycle   1  Pass 1  IDiag  1:
 E= -76.3590485233234    
 DIIS: error= 4.35D-02 at cycle   1 NSaved=   1.
 NSaved= 1 IEnMin= 1 EnMin= -76.3590485233234     IErMin= 1 ErrMin= 4.35D-02
 ErrMax= 4.35D-02  0.00D+00 EMaxC= 1.00D-01 BMatC= 1.40D-01 BMatP= 1.40D-01
 IDIUse=3 WtCom= 5.65D-01 WtEn= 4.35D-01
 Coeff-Com:  0.100D+01
 Coeff-En:   0.100D+01
 Coeff:      0.100D+01
 Gap=     0.274 Goal=   None    Shift=    0.000
 GapD=    0.274 DampG=1.000 DampE=0.500 DampFc=0.5000 IDamp=-1.
 Damping current iteration by 5.00D-01
 RMSDP=1.88D-03 MaxDP=6.73D-02              OVMax= 1.72D-01

 Cycle   2  Pass 1  IDiag  1:
 E= -76.3898341107594     Delta-E=       -0.030785587436 Rises=F Damp=T
 DIIS: error= 2.28D-02 at cycle   2 NSaved=   2.
 NSaved= 2 IEnMin= 2 EnMin= -76.3898341107594     IErMin= 2 ErrMin= 2.28D-02
 ErrMax= 2.28D-02  0.00D+00 EMaxC= 1.00D-01 BMatC= 1.39D-02 BMatP= 1.40D-01
 IDIUse=3 WtCom= 7.72D-01 WtEn= 2.28D-01
 Coeff-Com:  0.687D-01 0.931D+00
 Coeff-En:   0.206D+00 0.794D+00
 Coeff:      0.999D-01 0.900D+00
 Gap=     0.408 Goal=   None    Shift=    0.000
 RMSDP=6.26D-04 MaxDP=1.29D-02 DE=-3.08D-02 OVMax= 1.04D-01

 Cycle   3  Pass 1  IDiag  1:
 E= -76.4352349382893     Delta-E=       -0.045400827530 Rises=F Damp=F
 DIIS: error= 1.93D-03 at cycle   3 NSaved=   3.
 NSaved= 3 IEnMin= 3 EnMin= -76.4352349382893     IErMin= 3 ErrMin= 1.93D-03
 ErrMax= 1.93D-03  0.00D+00 EMaxC= 1.00D-01 BMatC= 2.23D-04 BMatP= 1.39D-02
 IDIUse=3 WtCom= 9.81D-01 WtEn= 1.93D-02
 Coeff-Com: -0.323D-01 0.611D-01 0.971D+00
 Coeff-En:   0.000D+00 0.000D+00 0.100D+01
 Coeff:     -0.316D-01 0.599D-01 0.972D+00
 Gap=     0.410 Goal=   None    Shift=    0.000
 RMSDP=6.82D-05 MaxDP=2.65D-03 DE=-4.54D-02 OVMax= 4.20D-03

 Cycle   4  Pass 1  IDiag  1:
 E= -76.4353941096099     Delta-E=       -0.000159171321 Rises=F Damp=F
 DIIS: error= 2.08D-04 at cycle   4 NSaved=   4.
 NSaved= 4 IEnMin= 4 EnMin= -76.4353941096099     IErMin= 4 ErrMin= 2.08D-04
 ErrMax= 2.08D-04  0.00D+00 EMaxC= 1.00D-01 BMatC= 3.22D-06 BMatP= 2.23D-04
 IDIUse=3 WtCom= 9.98D-01 WtEn= 2.08D-03
 Coeff-Com: -0.638D-03 0.159D-03 0.738D-01 0.927D+00
 Coeff-En:   0.000D+00 0.000D+00 0.000D+00 0.100D+01
 Coeff:     -0.636D-03 0.159D-03 0.737D-01 0.927D+00
 Gap=     0.410 Goal=   None    Shift=    0.000
 RMSDP=2.15D-05 MaxDP=5.24D-04 DE=-1.59D-04 OVMax= 6.43D-04

 Cycle   5  Pass 1  IDiag  1:
 E= -76.4353960963634     Delta-E=       -0.000001986753 Rises=F Damp=F
 DIIS: error= 5.79D-05 at cycle   5 NSaved=   5.
 NSaved= 5 IEnMin= 5 EnMin= -76.4353960963634     IErMin= 5 ErrMin= 5.79D-05
 ErrMax= 5.79D-05  0.00D+00 EMaxC= 1.00D-01 BMatC= 1.01D-07 BMatP= 3.22D-06
 IDIUse=1 WtCom= 1.00D+00 WtEn= 0.00D+00
 Coeff-Com:  0.151D-02-0.268D-02-0.351D-01 0.211D-01 0.102D+01
 Coeff:      0.151D-02-0.268D-02-0.351D-01 0.211D-01 0.102D+01
 Gap=     0.411 Goal=   None    Shift=    0.000
 RMSDP=5.18D-06 MaxDP=1.29D-04 DE=-1.99D-06 OVMax= 2.19D-04

 Cycle   6  Pass 1  IDiag  1:
 E= -76.4353962450089     Delta-E=       -0.000000148645 Rises=F Damp=F
 DIIS: error= 8.22D-06 at cycle   6 NSaved=   6.
 NSaved= 6 IEnMin= 6 EnMin= -76.4353962450089     IErMin= 6 ErrMin= 8.22D-06
 ErrMax= 8.22D-06  0.00D+00 EMaxC= 1.00D-01 BMatC= 3.21D-09 BMatP= 1.01D-07
 IDIUse=1 WtCom= 1.00D+00 WtEn= 0.00D+00
 Coeff-Com: -0.167D-03 0.248D-03 0.132D-02-0.246D-01-0.306D-01 0.105D+01
 Coeff:     -0.167D-03 0.248D-03 0.132D-02-0.246D-01-0.306D-01 0.105D+01
 Gap=     0.411 Goal=   None    Shift=    0.000
 RMSDP=5.72D-07 MaxDP=2.37D-05 DE=-1.49D-07 OVMax= 3.93D-05

 Cycle   7  Pass 1  IDiag  1:
 E= -76.4353962506295     Delta-E=       -0.000000005621 Rises=F Damp=F
 DIIS: error= 1.62D-06 at cycle   7 NSaved=   7.
 NSaved= 7 IEnMin= 7 EnMin= -76.4353962506295     IErMin= 7 ErrMin= 1.62D-06
 ErrMax= 1.62D-06  0.00D+00 EMaxC= 1.00D-01 BMatC= 9.22D-11 BMatP= 3.21D-09
 IDIUse=1 WtCom= 1.00D+00 WtEn= 0.00D+00
 Coeff-Com: -0.223D-04 0.571D-04 0.439D-03 0.844D-03-0.260D-01-0.927D-01
 Coeff-Com:  0.112D+01
 Coeff:     -0.223D-04 0.571D-04 0.439D-03 0.844D-03-0.260D-01-0.927D-01
 Coeff:      0.112D+01
 Gap=     0.411 Goal=   None    Shift=    0.000
 RMSDP=1.26D-07 MaxDP=4.87D-06 DE=-5.62D-09 OVMax= 9.86D-06

 Cycle   8  Pass 1  IDiag  1:
 E= -76.4353962508633     Delta-E=       -0.000000000234 Rises=F Damp=F
 DIIS: error= 2.25D-07 at cycle   8 NSaved=   8.
 NSaved= 8 IEnMin= 8 EnMin= -76.4353962508633     IErMin= 8 ErrMin= 2.25D-07
 ErrMax= 2.25D-07  0.00D+00 EMaxC= 1.00D-01 BMatC= 1.52D-12 BMatP= 9.22D-11
 IDIUse=1 WtCom= 1.00D+00 WtEn= 0.00D+00
 Coeff-Com:  0.632D-05-0.120D-04-0.523D-04 0.252D-03 0.357D-02-0.643D-04
 Coeff-Com: -0.184D+00 0.118D+01
 Coeff:      0.632D-05-0.120D-04-0.523D-04 0.252D-03 0.357D-02-0.643D-04
 Coeff:     -0.184D+00 0.118D+01
 Gap=     0.411 Goal=   None    Shift=    0.000
 RMSDP=1.36D-08 MaxDP=3.72D-07 DE=-2.34D-10 OVMax= 1.30D-06

 Cycle   9  Pass 1  IDiag  1:
 E= -76.4353962508667     Delta-E=       -0.000000000003 Rises=F Damp=F
 DIIS: error= 3.44D-08 at cycle   9 NSaved=   9.
 NSaved= 9 IEnMin= 9 EnMin= -76.4353962508667     IErMin= 9 ErrMin= 3.44D-08
 ErrMax= 3.44D-08  0.00D+00 EMaxC= 1.00D-01 BMatC= 3.40D-14 BMatP= 1.52D-12
 IDIUse=1 WtCom= 1.00D+00 WtEn= 0.00D+00
 Coeff-Com:  0.113D-07-0.199D-06 0.240D-06 0.367D-04-0.192D-03-0.818D-03
 Coeff-Com:  0.168D-01-0.144D+00 0.113D+01
 Coeff:      0.113D-07-0.199D-06 0.240D-06 0.367D-04-0.192D-03-0.818D-03
 Coeff:      0.168D-01-0.144D+00 0.113D+01
 Gap=     0.411 Goal=   None    Shift=    0.000
 RMSDP=2.29D-09 MaxDP=7.56D-08 DE=-3.41D-12 OVMax= 1.20D-07

 SCF Done:  E(RM062X) =  -76.4353962509     A.U. after    9 cycles
            NFock=  9  Conv=0.23D-08     -V/T= 2.0044
 KE= 7.609865771854D+01 PE=-1.986659765113D+02 EE= 3.720078575012D+01
 Leave Link  502 at Sat Apr 17 13:08:01 2021, MaxMem=   104857600 cpu:             174.7 elap:               4.2
 (Enter /s/ls4/users/knvvv/bin/g16sse/l601.exe)
 Copying SCF densities to generalized density rwf, IOpCl= 0 IROHF=0.

 **********************************************************************

            Population analysis using the SCF density.

 **********************************************************************

 Orbital symmetries:
       Occupied  (A') (A') (A') (A') (A")
       Virtual   (A') (A') (A') (A") (A') (A') (A") (A') (A") (A')
                 (A') (A') (A') (A') (A") (A') (A") (A') (A") (A')
                 (A') (A') (A") (A") (A') (A') (A') (A') (A') (A')
                 (A') (A") (A") (A') (A') (A") (A') (A") (A') (A')
                 (A') (A") (A') (A') (A") (A") (A') (A') (A") (A")
                 (A') (A') (A') (A') (A') (A') (A") (A') (A") (A")
                 (A') (A') (A") (A') (A') (A") (A') (A') (A") (A')
                 (A') (A") (A') (A") (A') (A") (A') (A') (A") (A')
                 (A') (A") (A') (A") (A') (A') (A') (A") (A") (A')
                 (A') (A") (A") (A') (A') (A') (A") (A') (A") (A')
                 (A') (A") (A') (A') (A") (A') (A') (A") (A') (A")
                 (A") (A') (A') (A") (A') (A") (A') (A') (A') (A")
                 (A') (A") (A') (A') (A') (A') (A')
 The electronic state is 1-A'.
 Alpha  occ. eigenvalues --  -19.63350  -1.12606  -0.59721  -0.47633  -0.40165
 Alpha virt. eigenvalues --    0.00896   0.04162   0.06350   0.06419   0.13135
 Alpha virt. eigenvalues --    0.14796   0.17182   0.18570   0.19311   0.23251
 Alpha virt. eigenvalues --    0.25220   0.27572   0.34768   0.36642   0.40323
 Alpha virt. eigenvalues --    0.44526   0.45917   0.46155   0.50949   0.52146
 Alpha virt. eigenvalues --    0.54269   0.65420   0.76711   0.80947   0.82812
 Alpha virt. eigenvalues --    0.94296   1.00469   1.03917   1.10089   1.14149
 Alpha virt. eigenvalues --    1.32569   1.38805   1.44113   1.46129   1.50312
 Alpha virt. eigenvalues --    1.59935   1.63039   1.87911   1.93964   2.01004
 Alpha virt. eigenvalues --    2.02349   2.23926   2.24388   2.43696   2.43841
 Alpha virt. eigenvalues --    2.45006   2.54475   2.60273   2.63447   2.67308
 Alpha virt. eigenvalues --    2.67383   2.87679   3.09683   3.20890   3.25023
 Alpha virt. eigenvalues --    3.39780   3.66164   3.89150   3.92049   3.95205
 Alpha virt. eigenvalues --    4.05665   4.13722   4.22411   4.24008   4.38797
 Alpha virt. eigenvalues --    4.50067   4.73004   4.74883   5.24602   5.26839
 Alpha virt. eigenvalues --    5.37867   5.59459   5.77776   5.82444   5.91479
 Alpha virt. eigenvalues --    6.24737   6.34856   6.59043   6.84564   6.97022
 Alpha virt. eigenvalues --    7.04882   7.13336   7.19592   7.23114   7.25536
 Alpha virt. eigenvalues --    7.29861   7.52489   7.53014   7.66058   7.68905
 Alpha virt. eigenvalues --    7.69323   7.72342   7.82606   7.97363   8.11024
 Alpha virt. eigenvalues --    8.29009   8.33895   8.48564   8.50700   8.71572
 Alpha virt. eigenvalues --    8.87955   9.63513   9.68749  10.02521  10.05269
 Alpha virt. eigenvalues --   10.45182  10.46540  10.72581  10.81914  10.96768
 Alpha virt. eigenvalues --   11.14994  11.25045  11.45160  11.45931  11.59585
 Alpha virt. eigenvalues --   11.61308  12.05870  12.46443  13.04346  13.28819
 Alpha virt. eigenvalues --   13.39161  13.66380  14.12399  16.09639  16.27975
 Alpha virt. eigenvalues --   48.22586 251.28483
          Condensed to atoms (all electrons):
               1          2          3
     1  O    8.161863   0.272974   0.272643
     2  H    0.272974   0.391919  -0.018191
     3  H    0.272643  -0.018191   0.391364
 Mulliken charges:
               1
     1  O   -0.707481
     2  H    0.353297
     3  H    0.354183
 Sum of Mulliken charges =  -0.00000
 Mulliken charges with hydrogens summed into heavy atoms:
               1
     1  O   -0.000000
 Electronic spatial extent (au):  <R**2>=             20.1719
 Charge=             -0.0000 electrons
 Dipole moment (field-independent basis, Debye):
    X=             -0.0009    Y=             -1.9355    Z=             -0.0000  Tot=              1.9355
 Quadrupole moment (field-independent basis, Debye-Ang):
   XX=             -4.3969   YY=             -6.3596   ZZ=             -7.7592
   XY=             -0.0057   XZ=              0.0000   YZ=             -0.0000
 Traceless Quadrupole moment (field-independent basis, Debye-Ang):
   XX=              1.7750   YY=             -0.1877   ZZ=             -1.5873
   XY=             -0.0057   XZ=              0.0000   YZ=             -0.0000
 Octapole moment (field-independent basis, Debye-Ang**2):
  XXX=             -0.0031  YYY=             -1.0203  ZZZ=             -0.0000  XYY=              0.0043
  XXY=             -1.4086  XXZ=             -0.0000  XZZ=             -0.0011  YZZ=             -0.2048
  YYZ=             -0.0000  XYZ=             -0.0000
 Hexadecapole moment (field-independent basis, Debye-Ang**3):
 XXXX=             -6.6354 YYYY=             -7.9051 ZZZZ=             -7.3729 XXXY=              0.0005
 XXXZ=             -0.0000 YYYX=             -0.0001 YYYZ=             -0.0000 ZZZX=             -0.0000
 ZZZY=             -0.0000 XXYY=             -2.0450 XXZZ=             -2.6812 YYZZ=             -2.6045
 XXYZ=             -0.0000 YYXZ=             -0.0000 ZZXY=              0.0016
 N-N= 8.931136791763D+00 E-N=-1.986659772700D+02  KE= 7.609865771854D+01
 PrsmSu:  requested number of processors reduced to:  21 ShMem   1 Linda.
 No NMR shielding tensors so no spin-rotation constants.
 Leave Link  601 at Sat Apr 17 13:08:02 2021, MaxMem=   104857600 cpu:              57.7 elap:               1.4
 (Enter /s/ls4/users/knvvv/bin/g16sse/l801.exe)
 DoSCS=F DFT=T ScalE2(SS,OS)=  1.000000  1.000000
 Range of M.O.s used for correlation:     1   132
 NBasis=   132 NAE=     5 NBE=     5 NFC=     0 NFV=     0
 NROrb=    132 NOA=     5 NOB=     5 NVA=   127 NVB=   127

 **** Warning!!: The largest alpha MO coefficient is  0.25173819D+02

 Leave Link  801 at Sat Apr 17 13:08:02 2021, MaxMem=   104857600 cpu:               3.1 elap:               0.1
 (Enter /s/ls4/users/knvvv/bin/g16sse/l914.exe)
 RHF ground state
 Doing stability rather than CIS.
 Two-electron integrals replicated using symmetry.
 MDV=   104857600 DFT=T DoStab=T Mixed=T DoRPA=F DoScal=F NonHer=F
 Making orbital integer symmetry assigments:
 Orbital symmetries:
       Occupied  (A') (A') (A') (A') (A")
       Virtual   (A') (A') (A') (A") (A') (A') (A") (A') (A") (A')
                 (A') (A') (A') (A') (A") (A') (A") (A') (A") (A')
                 (A') (A') (A") (A") (A') (A') (A') (A') (A') (A')
                 (A') (A") (A") (A') (A') (A") (A') (A") (A') (A')
                 (A') (A") (A') (A') (A") (A") (A') (A') (A") (A")
                 (A') (A') (A') (A') (A') (A') (A") (A') (A") (A")
                 (A') (A') (A") (A') (A') (A") (A') (A') (A") (A')
                 (A') (A") (A') (A") (A') (A") (A') (A') (A") (A')
                 (A') (A") (A') (A") (A') (A') (A') (A") (A") (A')
                 (A') (A") (A") (A') (A') (A') (A") (A') (A") (A')
                 (A') (A") (A') (A') (A") (A') (A') (A") (A') (A")
                 (A") (A') (A') (A") (A') (A") (A') (A') (A') (A")
                 (A') (A") (A') (A') (A') (A') (A')
    24 initial guesses have been made.
 Convergence on wavefunction:    0.001000000000000
 Davidson Disk Diagonalization:  ConvIn= 1.00D-03 SkipCon=T Conv= 1.00D-03.
 Max sub-space:  2000 roots to seek:    24 dimension of matrix:         1270
 Iteration     1 Dimension    24 NMult     0 NNew     24
 Estimated number of processors is:   20
 CISAX will form     1 AO SS matrices at one time.
 NMat=     1 NSing=     1 JSym2X= 2.
 FoFJK:  IHMeth= 1 ICntrl=       0 DoSepK=F KAlg= 0 I1Cent=           0 FoldK=F
 IRaf= 990000000 NMat=       1 IRICut=       1 DoRegI=T DoRafI=F ISym2E= 2 IDoP0=0 IntGTp=1.
 FoFCou: FMM=F IPFlag=           0 FMFlag=      100000 FMFlg1=           0
         NFxFlg=           0 DoJE=F BraDBF=F KetDBF=F FulRan=T
         wScrn=  0.000000 ICntrl=         0 IOpCl=  0 I1Cent=           0 NGrid=           0
         NMat0=    1 NMatS0=      1 NMatT0=    0 NMatD0=    1 NMtDS0=    0 NMtDT0=    0
 Integrals replicated using symmetry in FoFCou.
 CoulSu:  requested number of processors reduced to:  21 ShMem   1 Linda.
 NMat=     1 NSing=     1 JSym2X= 2.
 CoulSu:  requested number of processors reduced to:  21 ShMem   1 Linda.
 NMat=     1 NSing=     1 JSym2X= 2.
 CoulSu:  requested number of processors reduced to:  21 ShMem   1 Linda.
 NMat=     1 NSing=     1 JSym2X= 2.
 CoulSu:  requested number of processors reduced to:  21 ShMem   1 Linda.
 NMat=     1 NSing=     1 JSym2X= 2.
 CoulSu:  requested number of processors reduced to:  21 ShMem   1 Linda.
 NMat=     1 NSing=     1 JSym2X= 2.
 CoulSu:  requested number of processors reduced to:  21 ShMem   1 Linda.
 NMat=     1 NSing=     1 JSym2X= 2.
 CoulSu:  requested number of processors reduced to:  21 ShMem   1 Linda.
 NMat=     1 NSing=     1 JSym2X= 2.
 CoulSu:  requested number of processors reduced to:  21 ShMem   1 Linda.
 NMat=     1 NSing=     1 JSym2X= 2.
 CoulSu:  requested number of processors reduced to:  21 ShMem   1 Linda.
 NMat=     1 NSing=     1 JSym2X= 2.
 CoulSu:  requested number of processors reduced to:  21 ShMem   1 Linda.
 NMat=     1 NSing=     1 JSym2X= 2.
 CoulSu:  requested number of processors reduced to:  21 ShMem   1 Linda.
 NMat=     1 NSing=     1 JSym2X= 2.
 CoulSu:  requested number of processors reduced to:  21 ShMem   1 Linda.
 NMat=     1 NSing=     0 JSym2X= 2.
 CoulSu:  requested number of processors reduced to:  21 ShMem   1 Linda.
 NMat=     1 NSing=     0 JSym2X= 2.
 CoulSu:  requested number of processors reduced to:  21 ShMem   1 Linda.
 NMat=     1 NSing=     0 JSym2X= 2.
 CoulSu:  requested number of processors reduced to:  21 ShMem   1 Linda.
 NMat=     1 NSing=     0 JSym2X= 2.
 CoulSu:  requested number of processors reduced to:  21 ShMem   1 Linda.
 NMat=     1 NSing=     0 JSym2X= 2.
 CoulSu:  requested number of processors reduced to:  21 ShMem   1 Linda.
 NMat=     1 NSing=     0 JSym2X= 2.
 CoulSu:  requested number of processors reduced to:  21 ShMem   1 Linda.
 NMat=     1 NSing=     0 JSym2X= 2.
 CoulSu:  requested number of processors reduced to:  21 ShMem   1 Linda.
 NMat=     1 NSing=     0 JSym2X= 2.
 CoulSu:  requested number of processors reduced to:  21 ShMem   1 Linda.
 NMat=     1 NSing=     0 JSym2X= 2.
 CoulSu:  requested number of processors reduced to:  21 ShMem   1 Linda.
 NMat=     1 NSing=     0 JSym2X= 2.
 CoulSu:  requested number of processors reduced to:  21 ShMem   1 Linda.
 NMat=     1 NSing=     0 JSym2X= 2.
 CoulSu:  requested number of processors reduced to:  21 ShMem   1 Linda.
 NMat=     1 NSing=     0 JSym2X= 2.
 CoulSu:  requested number of processors reduced to:  21 ShMem   1 Linda.
 New state      1 was old state      2
 Excitation Energies [eV] at current iteration:
 Root      1 :     7.600686188648717
 Root      2 :     7.977153516766268
 Root      3 :     9.239669722393025
 Root      4 :     9.404603901736095
 Root      5 :     9.887603558779471
 Root      6 :    10.022334876110140
 Root      7 :    10.126942390601350
 Root      8 :    10.137978577736860
 Root      9 :    10.193393303919780
 Root     10 :    11.269199282631430
 Root     11 :    11.345457880672280
 Root     12 :    11.401621500218070
 Root     13 :    11.482260068307000
 Root     14 :    11.600764604224710
 Root     15 :    11.983761194317170
 Root     16 :    12.071658735418320
 Root     17 :    12.156458789545290
 Root     18 :    12.173592610789570
 Root     19 :    12.201819791117430
 Root     20 :    12.885411813620120
 Root     21 :    13.081715618124730
 Root     22 :    13.114329243362030
 Root     23 :    13.122704923015220
 Root     24 :    13.340561879193840
 Iteration     2 Dimension    48 NMult    24 NNew     24
 Estimated number of processors is:   20
 CISAX will form     1 AO SS matrices at one time.
 NMat=     1 NSing=     1 JSym2X= 2.
 CoulSu:  requested number of processors reduced to:  21 ShMem   1 Linda.
 NMat=     1 NSing=     1 JSym2X= 2.
 CoulSu:  requested number of processors reduced to:  21 ShMem   1 Linda.
 NMat=     1 NSing=     1 JSym2X= 2.
 CoulSu:  requested number of processors reduced to:  21 ShMem   1 Linda.
 NMat=     1 NSing=     1 JSym2X= 2.
 CoulSu:  requested number of processors reduced to:  21 ShMem   1 Linda.
 NMat=     1 NSing=     1 JSym2X= 2.
 CoulSu:  requested number of processors reduced to:  21 ShMem   1 Linda.
 NMat=     1 NSing=     1 JSym2X= 2.
 CoulSu:  requested number of processors reduced to:  21 ShMem   1 Linda.
 NMat=     1 NSing=     1 JSym2X= 2.
 CoulSu:  requested number of processors reduced to:  21 ShMem   1 Linda.
 NMat=     1 NSing=     1 JSym2X= 2.
 CoulSu:  requested number of processors reduced to:  21 ShMem   1 Linda.
 NMat=     1 NSing=     1 JSym2X= 2.
 CoulSu:  requested number of processors reduced to:  21 ShMem   1 Linda.
 NMat=     1 NSing=     1 JSym2X= 2.
 CoulSu:  requested number of processors reduced to:  21 ShMem   1 Linda.
 NMat=     1 NSing=     1 JSym2X= 2.
 CoulSu:  requested number of processors reduced to:  21 ShMem   1 Linda.
 NMat=     1 NSing=     1 JSym2X= 2.
 CoulSu:  requested number of processors reduced to:  21 ShMem   1 Linda.
 NMat=     1 NSing=     0 JSym2X= 2.
 CoulSu:  requested number of processors reduced to:  21 ShMem   1 Linda.
 NMat=     1 NSing=     0 JSym2X= 2.
 CoulSu:  requested number of processors reduced to:  21 ShMem   1 Linda.
 NMat=     1 NSing=     0 JSym2X= 2.
 CoulSu:  requested number of processors reduced to:  21 ShMem   1 Linda.
 NMat=     1 NSing=     0 JSym2X= 2.
 CoulSu:  requested number of processors reduced to:  21 ShMem   1 Linda.
 NMat=     1 NSing=     0 JSym2X= 2.
 CoulSu:  requested number of processors reduced to:  21 ShMem   1 Linda.
 NMat=     1 NSing=     0 JSym2X= 2.
 CoulSu:  requested number of processors reduced to:  21 ShMem   1 Linda.
 NMat=     1 NSing=     0 JSym2X= 2.
 CoulSu:  requested number of processors reduced to:  21 ShMem   1 Linda.
 NMat=     1 NSing=     0 JSym2X= 2.
 CoulSu:  requested number of processors reduced to:  21 ShMem   1 Linda.
 NMat=     1 NSing=     0 JSym2X= 2.
 CoulSu:  requested number of processors reduced to:  21 ShMem   1 Linda.
 NMat=     1 NSing=     0 JSym2X= 2.
 CoulSu:  requested number of processors reduced to:  21 ShMem   1 Linda.
 NMat=     1 NSing=     0 JSym2X= 2.
 CoulSu:  requested number of processors reduced to:  21 ShMem   1 Linda.
 NMat=     1 NSing=     0 JSym2X= 2.
 CoulSu:  requested number of processors reduced to:  21 ShMem   1 Linda.
 Root      1 not converged, maximum delta is    0.149503637667518
 Excitation Energies [eV] at current iteration:
 Root      1 :     6.988420212265871   Change is   -0.612265976382845
 Root      2 :     7.787025234134267   Change is   -0.190128282632001
 Root      3 :     8.732408648661577   Change is   -0.507261073731447
 Root      4 :     8.996729481737715   Change is   -0.890874077041756
 Root      5 :     9.125806450023347   Change is   -0.278797451712747
 Root      6 :     9.763029133712006   Change is   -0.363913256889344
 Root      7 :     9.860691734836012   Change is   -0.332701569083772
 Root      8 :     9.869092941701339   Change is   -0.153241934408800
 Root      9 :    10.054451648478320   Change is   -0.083526929258538
 Root     10 :    10.673501133323430   Change is   -0.595698149307995
 Root     11 :    10.744339864877810   Change is   -0.657281635340254
 Root     12 :    10.873084193838860   Change is   -0.472373686833421
 Root     13 :    11.186265331046290   Change is   -0.295994737260710
 Root     14 :    11.361588622626880   Change is   -0.239175981597837
 Root     15 :    11.738586663641580   Change is   -0.333072071776739
 Root     16 :    11.748529354847760   Change is   -0.235231839469412
 Root     17 :    11.949031840114490   Change is   -0.207426949430804
 Root     18 :    12.032818555615470   Change is   -0.169001235501963
 Root     19 :    12.058265644623540   Change is   -0.115326966166031
 Root     20 :    12.404295078048290   Change is   -0.718409844966930
 Root     21 :    12.411222493642940   Change is   -0.474189319977177
 Root     22 :    12.825865863844680   Change is   -0.255849754280049
 Root     23 :    12.881042498887510   Change is   -0.233286744474526
 Root     24 :    13.050054526932080   Change is   -0.290507352261760
 Iteration     3 Dimension    54 NMult    48 NNew      6
 Estimated number of processors is:   20
 CISAX will form     1 AO SS matrices at one time.
 NMat=     1 NSing=     1 JSym2X= 2.
 CoulSu:  requested number of processors reduced to:  21 ShMem   1 Linda.
 NMat=     1 NSing=     1 JSym2X= 2.
 CoulSu:  requested number of processors reduced to:  21 ShMem   1 Linda.
 NMat=     1 NSing=     1 JSym2X= 2.
 CoulSu:  requested number of processors reduced to:  21 ShMem   1 Linda.
 NMat=     1 NSing=     0 JSym2X= 2.
 CoulSu:  requested number of processors reduced to:  21 ShMem   1 Linda.
 NMat=     1 NSing=     0 JSym2X= 2.
 CoulSu:  requested number of processors reduced to:  21 ShMem   1 Linda.
 NMat=     1 NSing=     0 JSym2X= 2.
 CoulSu:  requested number of processors reduced to:  21 ShMem   1 Linda.
 Root      1 not converged, maximum delta is    0.011677933819475
 Excitation Energies [eV] at current iteration:
 Root      1 :     6.975980054552886   Change is   -0.012440157712986
 Root      2 :     7.774970263334221   Change is   -0.012054970800047
 Root      3 :     8.713218564700965   Change is   -0.019190083960612
 Root      4 :     8.870252357542769   Change is   -0.126477124194946
 Root      5 :     9.120126226882789   Change is   -0.005680223140558
 Root      6 :     9.843632186651545   Change is   -0.017059548184467
 Iteration     4 Dimension    60 NMult    54 NNew      6
 Estimated number of processors is:   20
 CISAX will form     1 AO SS matrices at one time.
 NMat=     1 NSing=     1 JSym2X= 2.
 CoulSu:  requested number of processors reduced to:  21 ShMem   1 Linda.
 NMat=     1 NSing=     1 JSym2X= 2.
 CoulSu:  requested number of processors reduced to:  21 ShMem   1 Linda.
 NMat=     1 NSing=     1 JSym2X= 2.
 CoulSu:  requested number of processors reduced to:  21 ShMem   1 Linda.
 NMat=     1 NSing=     0 JSym2X= 2.
 CoulSu:  requested number of processors reduced to:  21 ShMem   1 Linda.
 NMat=     1 NSing=     0 JSym2X= 2.
 CoulSu:  requested number of processors reduced to:  21 ShMem   1 Linda.
 NMat=     1 NSing=     0 JSym2X= 2.
 CoulSu:  requested number of processors reduced to:  21 ShMem   1 Linda.
 Root      1 has converged.
 Excitation Energies [eV] at current iteration:
 Root      1 :     6.975860381791467   Change is   -0.000119672761419
 Root      2 :     7.774880929179500   Change is   -0.000089334154720
 Root      3 :     8.712839278831778   Change is   -0.000379285869187
 Root      4 :     8.846736435332577   Change is   -0.023515922210193
 Root      5 :     9.120039465412178   Change is   -0.000086761470611
 Root      6 :     9.841696634838128   Change is   -0.001935551813416
 Convergence achieved on expansion vectors.
 ***********************************************************************
 Stability analysis using <AA,BB:AA,BB> singles matrix:
 ***********************************************************************
 1PDM for each excited state written to RWF  633
 Ground to excited state transition densities written to RWF  633

 Eigenvectors of the stability matrix:
 
 Eigenvector   1:      Triplet-A"   Eigenvalue= 0.2563582  <S**2>=2.000
       5 ->  6         0.65095
       5 ->  8        -0.10504
       5 -> 13        -0.16107
       5 -> 16        -0.15719
 The wavefunction is stable under the perturbations considered.
 Leave Link  914 at Sat Apr 17 13:09:37 2021, MaxMem=   104857600 cpu:            3644.2 elap:              94.1
 (Enter /s/ls4/users/knvvv/bin/g16sse/l508.exe)
 The wavefunction is already stable.
 Leave Link  508 at Sat Apr 17 13:09:37 2021, MaxMem=   104857600 cpu:               2.2 elap:               0.1
 (Enter /s/ls4/users/knvvv/bin/g16sse/l601.exe)
 Copying SCF densities to generalized density rwf, IOpCl= 0 IROHF=0.

 **********************************************************************

            Population analysis using the SCF density.

 **********************************************************************

 Orbital symmetries:
       Occupied  (A') (A') (A') (A') (A")
       Virtual   (A') (A') (A') (A") (A') (A') (A") (A') (A") (A')
                 (A') (A') (A') (A') (A") (A') (A") (A') (A") (A')
                 (A') (A') (A") (A") (A') (A') (A') (A') (A') (A')
                 (A') (A") (A") (A') (A') (A") (A') (A") (A') (A')
                 (A') (A") (A') (A') (A") (A") (A') (A') (A") (A")
                 (A') (A') (A') (A') (A') (A') (A") (A') (A") (A")
                 (A') (A') (A") (A') (A') (A") (A') (A') (A") (A')
                 (A') (A") (A') (A") (A') (A") (A') (A') (A") (A')
                 (A') (A") (A') (A") (A') (A') (A') (A") (A") (A')
                 (A') (A") (A") (A') (A') (A') (A") (A') (A") (A')
                 (A') (A") (A') (A') (A") (A') (A') (A") (A') (A")
                 (A") (A') (A') (A") (A') (A") (A') (A') (A') (A")
                 (A') (A") (A') (A') (A') (A') (A')
 The electronic state is 1-A'.
 Alpha  occ. eigenvalues --  -19.63350  -1.12606  -0.59721  -0.47633  -0.40165
 Alpha virt. eigenvalues --    0.00896   0.04162   0.06350   0.06419   0.13135
 Alpha virt. eigenvalues --    0.14796   0.17182   0.18570   0.19311   0.23251
 Alpha virt. eigenvalues --    0.25220   0.27572   0.34768   0.36642   0.40323
 Alpha virt. eigenvalues --    0.44526   0.45917   0.46155   0.50949   0.52146
 Alpha virt. eigenvalues --    0.54269   0.65420   0.76711   0.80947   0.82812
 Alpha virt. eigenvalues --    0.94296   1.00469   1.03917   1.10089   1.14149
 Alpha virt. eigenvalues --    1.32569   1.38805   1.44113   1.46129   1.50312
 Alpha virt. eigenvalues --    1.59935   1.63039   1.87911   1.93964   2.01004
 Alpha virt. eigenvalues --    2.02349   2.23926   2.24388   2.43696   2.43841
 Alpha virt. eigenvalues --    2.45006   2.54475   2.60273   2.63447   2.67308
 Alpha virt. eigenvalues --    2.67383   2.87679   3.09683   3.20890   3.25023
 Alpha virt. eigenvalues --    3.39780   3.66164   3.89150   3.92049   3.95205
 Alpha virt. eigenvalues --    4.05665   4.13722   4.22411   4.24008   4.38797
 Alpha virt. eigenvalues --    4.50067   4.73004   4.74883   5.24602   5.26839
 Alpha virt. eigenvalues --    5.37867   5.59459   5.77776   5.82444   5.91479
 Alpha virt. eigenvalues --    6.24737   6.34856   6.59043   6.84564   6.97022
 Alpha virt. eigenvalues --    7.04882   7.13336   7.19592   7.23114   7.25536
 Alpha virt. eigenvalues --    7.29861   7.52489   7.53014   7.66058   7.68905
 Alpha virt. eigenvalues --    7.69323   7.72342   7.82606   7.97363   8.11024
 Alpha virt. eigenvalues --    8.29009   8.33895   8.48564   8.50700   8.71572
 Alpha virt. eigenvalues --    8.87955   9.63513   9.68749  10.02521  10.05269
 Alpha virt. eigenvalues --   10.45182  10.46540  10.72581  10.81914  10.96768
 Alpha virt. eigenvalues --   11.14994  11.25045  11.45160  11.45931  11.59585
 Alpha virt. eigenvalues --   11.61308  12.05870  12.46443  13.04346  13.28819
 Alpha virt. eigenvalues --   13.39161  13.66380  14.12399  16.09639  16.27975
 Alpha virt. eigenvalues --   48.22586 251.28483
          Condensed to atoms (all electrons):
               1          2          3
     1  O    8.161863   0.272974   0.272643
     2  H    0.272974   0.391919  -0.018191
     3  H    0.272643  -0.018191   0.391364
 Mulliken charges:
               1
     1  O   -0.707481
     2  H    0.353297
     3  H    0.354183
 Sum of Mulliken charges =  -0.00000
 Mulliken charges with hydrogens summed into heavy atoms:
               1
     1  O   -0.000000
 Electronic spatial extent (au):  <R**2>=             20.1719
 Charge=             -0.0000 electrons
 Dipole moment (field-independent basis, Debye):
    X=             -0.0009    Y=             -1.9355    Z=             -0.0000  Tot=              1.9355
 Quadrupole moment (field-independent basis, Debye-Ang):
   XX=             -4.3969   YY=             -6.3596   ZZ=             -7.7592
   XY=             -0.0057   XZ=              0.0000   YZ=             -0.0000
 Traceless Quadrupole moment (field-independent basis, Debye-Ang):
   XX=              1.7750   YY=             -0.1877   ZZ=             -1.5873
   XY=             -0.0057   XZ=              0.0000   YZ=             -0.0000
 Octapole moment (field-independent basis, Debye-Ang**2):
  XXX=             -0.0031  YYY=             -1.0203  ZZZ=             -0.0000  XYY=              0.0043
  XXY=             -1.4086  XXZ=             -0.0000  XZZ=             -0.0011  YZZ=             -0.2048
  YYZ=             -0.0000  XYZ=             -0.0000
 Hexadecapole moment (field-independent basis, Debye-Ang**3):
 XXXX=             -6.6354 YYYY=             -7.9051 ZZZZ=             -7.3729 XXXY=              0.0005
 XXXZ=             -0.0000 YYYX=             -0.0001 YYYZ=             -0.0000 ZZZX=             -0.0000
 ZZZY=             -0.0000 XXYY=             -2.0450 XXZZ=             -2.6812 YYZZ=             -2.6045
 XXYZ=             -0.0000 YYXZ=             -0.0000 ZZXY=              0.0016
 N-N= 8.931136791763D+00 E-N=-1.986659772700D+02  KE= 7.609865771854D+01
 PrsmSu:  requested number of processors reduced to:  21 ShMem   1 Linda.
 No NMR shielding tensors so no spin-rotation constants.
 Leave Link  601 at Sat Apr 17 13:09:38 2021, MaxMem=   104857600 cpu:              48.5 elap:               1.2
 (Enter /s/ls4/users/knvvv/bin/g16sse/l9999.exe)

 Test job not archived.
 1\1\GINC-N156\Stability\RM062X\Gen\H2O1\KNVVV\17-Apr-2021\0\\#P M062X/
 GEN Integral=UltraFineGrid SCF=NoSymm Stable=(RExt, Opt) IOp(1/33=1)\\
 Database calculations.\\0,1\O,0,0.62426,-1.372495,-4.062369\H,0,1.0055
 02,-0.927772,-3.26814\H,0,0.286384,-0.621037,-4.601659\\Version=ES64L-
 G16RevA.03\State=1-A'\HF=-76.4353963\RMSD=2.290e-09\Dipole=0.0268219,0
 .7443401,0.1583266\Quadrupole=-0.6378715,-0.0870583,0.7249298,-0.19532
 27,1.0107572,-0.2171207\PG=CS [SG(H2O1)]\\@


 LAW OF COMPENSATION:
      NO CALCULATION IS EVER A COMPLETE FAILURE; IT 
      CAN ALWAYS SERVE AS A BAD EXAMPLE.

                                           -- ANON
 Job cpu time:       0 days  1 hours  9 minutes 29.9 seconds.
 Elapsed time:       0 days  0 hours  1 minutes 46.6 seconds.
 File lengths (MBytes):  RWF=     56 Int=      0 D2E=      0 Chk=      3 Scr=      1
 Normal termination of Gaussian 16 at Sat Apr 17 13:09:38 2021.
