 Entering Gaussian System, Link 0=/s/ls4/users/knvvv/bin/g16sse/g16
 Input=data/database/M062X--BE13--Z_001_BE13_O.gjf
 Output=data/database/M062X--BE13--Z_001_BE13_O.log
 Initial command:
 /s/ls4/users/knvvv/bin/g16sse/l1.exe "/s/ls4/users/knvvv/bin/scratch/Gau-22804.inp" -scrdir="/s/ls4/users/knvvv/bin/scratch/"
 Entering Link 1 = /s/ls4/users/knvvv/bin/g16sse/l1.exe PID=     22805.
  
 Copyright (c) 1988,1990,1992,1993,1995,1998,2003,2009,2016,
            Gaussian, Inc.  All Rights Reserved.
  
 This is part of the Gaussian(R) 16 program.  It is based on
 the Gaussian(R) 09 system (copyright 2009, Gaussian, Inc.),
 the Gaussian(R) 03 system (copyright 2003, Gaussian, Inc.),
 the Gaussian(R) 98 system (copyright 1998, Gaussian, Inc.),
 the Gaussian(R) 94 system (copyright 1995, Gaussian, Inc.),
 the Gaussian 92(TM) system (copyright 1992, Gaussian, Inc.),
 the Gaussian 90(TM) system (copyright 1990, Gaussian, Inc.),
 the Gaussian 88(TM) system (copyright 1988, Gaussian, Inc.),
 the Gaussian 86(TM) system (copyright 1986, Carnegie Mellon
 University), and the Gaussian 82(TM) system (copyright 1983,
 Carnegie Mellon University). Gaussian is a federally registered
 trademark of Gaussian, Inc.
  
 This software contains proprietary and confidential information,
 including trade secrets, belonging to Gaussian, Inc.
  
 This software is provided under written license and may be
 used, copied, transmitted, or stored only in accord with that
 written license.
  
 The following legend is applicable only to US Government
 contracts under FAR:
  
                    RESTRICTED RIGHTS LEGEND
  
 Use, reproduction and disclosure by the US Government is
 subject to restrictions as set forth in subparagraphs (a)
 and (c) of the Commercial Computer Software - Restricted
 Rights clause in FAR 52.227-19.
  
 Gaussian, Inc.
 340 Quinnipiac St., Bldg. 40, Wallingford CT 06492
  
  
 ---------------------------------------------------------------
 Warning -- This program may not be used in any manner that
 competes with the business of Gaussian, Inc. or will provide
 assistance to any competitor of Gaussian, Inc.  The licensee
 of this program is prohibited from giving any competitor of
 Gaussian, Inc. access to this program.  By using this program,
 the user acknowledges that Gaussian, Inc. is engaged in the
 business of creating and licensing software in the field of
 computational chemistry and represents and warrants to the
 licensee that it is not a competitor of Gaussian, Inc. and that
 it will not use this program in any manner prohibited above.
 ---------------------------------------------------------------
  

 Cite this work as:
 Gaussian 16, Revision A.03,
 M. J. Frisch, G. W. Trucks, H. B. Schlegel, G. E. Scuseria, 
 M. A. Robb, J. R. Cheeseman, G. Scalmani, V. Barone, 
 G. A. Petersson, H. Nakatsuji, X. Li, M. Caricato, A. V. Marenich, 
 J. Bloino, B. G. Janesko, R. Gomperts, B. Mennucci, H. P. Hratchian, 
 J. V. Ortiz, A. F. Izmaylov, J. L. Sonnenberg, D. Williams-Young, 
 F. Ding, F. Lipparini, F. Egidi, J. Goings, B. Peng, A. Petrone, 
 T. Henderson, D. Ranasinghe, V. G. Zakrzewski, J. Gao, N. Rega, 
 G. Zheng, W. Liang, M. Hada, M. Ehara, K. Toyota, R. Fukuda, 
 J. Hasegawa, M. Ishida, T. Nakajima, Y. Honda, O. Kitao, H. Nakai, 
 T. Vreven, K. Throssell, J. A. Montgomery, Jr., J. E. Peralta, 
 F. Ogliaro, M. J. Bearpark, J. J. Heyd, E. N. Brothers, K. N. Kudin, 
 V. N. Staroverov, T. A. Keith, R. Kobayashi, J. Normand, 
 K. Raghavachari, A. P. Rendell, J. C. Burant, S. S. Iyengar, 
 J. Tomasi, M. Cossi, J. M. Millam, M. Klene, C. Adamo, R. Cammi, 
 J. W. Ochterski, R. L. Martin, K. Morokuma, O. Farkas, 
 J. B. Foresman, and D. J. Fox, Gaussian, Inc., Wallingford CT, 2016.
 
 ******************************************
 Gaussian 16:  ES64L-G16RevA.03 25-Dec-2016
                16-Apr-2021 
 ******************************************
 %RWF=temp3_73468,70GB
 %nprocshared=48
 Will use up to   48 processors via shared memory.
 Default route: MaxDisk=80GB
 ----------------------------------------------------------------------
 #P M062X/GEN Integral=UltraFineGrid SCF=NoSymm Stable=(RExt, Opt) IOp(
 1/33=1)
 ----------------------------------------------------------------------
 1/33=1,38=1,172=1/1;
 2/12=2,17=6,18=5,40=1/2;
 3/5=7,11=2,25=1,30=1,74=-55,75=-5/1,2,3;
 4/9=2/1;
 5/5=2,38=5/2;
 6/7=2,8=2,9=2,10=2,28=1/1;
 8/6=1,10=90,11=11/1;
 9/8=-3,42=1,46=1/14;
 5/5=2,8=3,17=40,38=5/8(-2);
 6/7=2,8=2,9=2,10=2,28=1/1;
 99/5=1,9=1/99;
 Leave Link    1 at Fri Apr 16 23:15:52 2021, MaxMem=           0 cpu:               8.6 elap:               0.2
 (Enter /s/ls4/users/knvvv/bin/g16sse/l101.exe)
 ONIOM data not found on unit 2.
 ----------------------
 Database calculations.
 ----------------------
 TstMul:  ICh=     0
 TstMul:  Mul=     3
 TstMul:  ICh=     0
 TstMul:  Mul=     3
 Symbolic Z-matrix:
 Charge =  0 Multiplicity = 3
 O                     0.        0.        0. 
 
 RdStrC is calling ZToCFu for IStruc=1 NZ=     1.
 PrtBox:  NBox=     1 Levels=  0 BoxLen=    8.00 SMaxX=        0.00
          Shift=            0.000000            0.000000            0.000000
 Box      1 Number                   0 centers from      1 to      1:
 After GenITR:
 ITRead=  0
 MicOpt= -1
 ITRead=  0
 MicOpt= -1
 NAtoms=      1 NQM=        1 NQMF=       0 NMMI=      0 NMMIF=      0
                NMic=       0 NMicF=      0.
                    Isotopes and Nuclear Properties:
 (Nuclear quadrupole moments (NQMom) in fm**2, nuclear magnetic moments (NMagM)
  in nuclear magnetons)

  Atom         1
 IAtWgt=          16
 AtmWgt=  15.9949146
 NucSpn=           0
 AtZEff=  -0.0000000
 NQMom=    0.0000000
 NMagM=    0.0000000
 AtZNuc=   8.0000000
 No MM parameters found.
 Leave Link  101 at Fri Apr 16 23:15:52 2021, MaxMem=   104857600 cpu:               5.4 elap:               0.1
 (Enter /s/ls4/users/knvvv/bin/g16sse/l202.exe)
                          Input orientation:                          
 ---------------------------------------------------------------------
 Center     Atomic      Atomic             Coordinates (Angstroms)
 Number     Number       Type             X           Y           Z
 ---------------------------------------------------------------------
      1          8           0        0.000000    0.000000    0.000000
 ---------------------------------------------------------------------
 Stoichiometry    O(3)
 Framework group  OH[O(O)]
 Deg. of freedom     0
 Full point group                 OH      NOp  48
 Largest Abelian subgroup         D2H     NOp   8
 Largest concise Abelian subgroup C1      NOp   1
                         Standard orientation:                         
 ---------------------------------------------------------------------
 Center     Atomic      Atomic             Coordinates (Angstroms)
 Number     Number       Type             X           Y           Z
 ---------------------------------------------------------------------
      1          8           0        0.000000    0.000000    0.000000
 ---------------------------------------------------------------------
 Leave Link  202 at Fri Apr 16 23:15:53 2021, MaxMem=   104857600 cpu:              32.6 elap:               0.7
 (Enter /s/ls4/users/knvvv/bin/g16sse/l301.exe)
 General basis read from cards:  (5D, 7F)
 Centers:       1
 S 10 1.00
     Exponent=  1.5330000000D+04 Coefficients=  5.0800000000D-04
     Exponent=  2.2990000000D+03 Coefficients=  3.9290000000D-03
     Exponent=  5.2240000000D+02 Coefficients=  2.0243000000D-02
     Exponent=  1.4730000000D+02 Coefficients=  7.9181000000D-02
     Exponent=  4.7550000000D+01 Coefficients=  2.3068700000D-01
     Exponent=  1.6760000000D+01 Coefficients=  4.3311800000D-01
     Exponent=  6.2070000000D+00 Coefficients=  3.5026000000D-01
     Exponent=  1.7520000000D+00 Coefficients=  4.2728000000D-02
     Exponent=  6.8820000000D-01 Coefficients= -8.1540000000D-03
     Exponent=  2.3840000000D-01 Coefficients=  2.3810000000D-03
 S 10 1.00
     Exponent=  1.5330000000D+04 Coefficients= -1.1500000000D-04
     Exponent=  2.2990000000D+03 Coefficients= -8.9500000000D-04
     Exponent=  5.2240000000D+02 Coefficients= -4.6360000000D-03
     Exponent=  1.4730000000D+02 Coefficients= -1.8724000000D-02
     Exponent=  4.7550000000D+01 Coefficients= -5.8463000000D-02
     Exponent=  1.6760000000D+01 Coefficients= -1.3646300000D-01
     Exponent=  6.2070000000D+00 Coefficients= -1.7574000000D-01
     Exponent=  1.7520000000D+00 Coefficients=  1.6093400000D-01
     Exponent=  6.8820000000D-01 Coefficients=  6.0341800000D-01
     Exponent=  2.3840000000D-01 Coefficients=  3.7876500000D-01
 S 1 1.00
     Exponent=  1.7520000000D+00 Coefficients=  1.0000000000D+00
 S 1 1.00
     Exponent=  2.3840000000D-01 Coefficients=  1.0000000000D+00
 S 1 1.00
     Exponent=  7.3760000000D-02 Coefficients=  1.0000000000D+00
 P 5 1.00
     Exponent=  3.4460000000D+01 Coefficients=  1.5928000000D-02
     Exponent=  7.7490000000D+00 Coefficients=  9.9740000000D-02
     Exponent=  2.2800000000D+00 Coefficients=  3.1049200000D-01
     Exponent=  7.1560000000D-01 Coefficients=  4.9102600000D-01
     Exponent=  2.1400000000D-01 Coefficients=  3.3633700000D-01
 P 1 1.00
     Exponent=  7.1560000000D-01 Coefficients=  1.0000000000D+00
 P 1 1.00
     Exponent=  2.1400000000D-01 Coefficients=  1.0000000000D+00
 P 1 1.00
     Exponent=  5.9740000000D-02 Coefficients=  1.0000000000D+00
 D 1 1.00
     Exponent=  2.3140000000D+00 Coefficients=  1.0000000000D+00
 D 1 1.00
     Exponent=  6.4500000000D-01 Coefficients=  1.0000000000D+00
 D 1 1.00
     Exponent=  2.1400000000D-01 Coefficients=  1.0000000000D+00
 F 1 1.00
     Exponent=  1.4280000000D+00 Coefficients=  1.0000000000D+00
 F 1 1.00
     Exponent=  5.0000000000D-01 Coefficients=  1.0000000000D+00
 ****
 Ernie: Thresh=  0.10000D-02 Tol=  0.10000D-05 Strict=F.
 Ernie:  7 primitive shells out of 36 were deleted.
 There are    14 symmetry adapted cartesian basis functions of AG  symmetry.
 There are     3 symmetry adapted cartesian basis functions of B1G symmetry.
 There are     3 symmetry adapted cartesian basis functions of B2G symmetry.
 There are     3 symmetry adapted cartesian basis functions of B3G symmetry.
 There are     2 symmetry adapted cartesian basis functions of AU  symmetry.
 There are    10 symmetry adapted cartesian basis functions of B1U symmetry.
 There are    10 symmetry adapted cartesian basis functions of B2U symmetry.
 There are    10 symmetry adapted cartesian basis functions of B3U symmetry.
 There are    11 symmetry adapted basis functions of AG  symmetry.
 There are     3 symmetry adapted basis functions of B1G symmetry.
 There are     3 symmetry adapted basis functions of B2G symmetry.
 There are     3 symmetry adapted basis functions of B3G symmetry.
 There are     2 symmetry adapted basis functions of AU  symmetry.
 There are     8 symmetry adapted basis functions of B1U symmetry.
 There are     8 symmetry adapted basis functions of B2U symmetry.
 There are     8 symmetry adapted basis functions of B3U symmetry.
    46 basis functions,    78 primitive gaussians,    55 cartesian basis functions
     5 alpha electrons        3 beta electrons
       nuclear repulsion energy         0.0000000000 Hartrees.
 IExCor= 4336 DFT=T Ex+Corr=M062X ExCW=0 ScaHFX=  0.540000
 ScaDFX=  1.000000  1.000000  1.000000  1.000000 ScalE2=  1.000000  1.000000
 IRadAn=      5 IRanWt=     -1 IRanGd=            0 ICorTp=0 IEmpDi=  4
 NAtoms=    1 NActive=    1 NUniq=    1 SFac= 1.00D+00 NAtFMM=   60 NAOKFM=F Big=F
 Integral buffers will be    131072 words long.
 Raffenetti 2 integral format.
 Two-electron integral symmetry is turned on.
 Leave Link  301 at Fri Apr 16 23:15:53 2021, MaxMem=   104857600 cpu:               7.8 elap:               0.2
 (Enter /s/ls4/users/knvvv/bin/g16sse/l302.exe)
 NPDir=0 NMtPBC=     1 NCelOv=     1 NCel=       1 NClECP=     1 NCelD=      1
         NCelK=      1 NCelE2=     1 NClLst=     1 CellRange=     0.0.
 One-electron integrals computed using PRISM.
 One-electron integral symmetry used in STVInt
 PrsmSu:  requested number of processors reduced to:  13 ShMem   1 Linda.
 NBasis=    46 RedAO= T EigKep=  3.38D-02  NBF=    11     3     3     3     2     8     8     8
 NBsUse=    46 1.00D-06 EigRej= -1.00D+00 NBFU=    11     3     3     3     2     8     8     8
 Precomputing XC quadrature grid using
 IXCGrd= 4 IRadAn=           5 IRanWt=          -1 IRanGd=           0 AccXCQ= 0.00D+00.
 Generated NRdTot=       0 NPtTot=           0 NUsed=           0 NTot=          32
 NSgBfM=    55    55    55    55    55 MxSgAt=     1 MxSgA2=     1.
 Leave Link  302 at Fri Apr 16 23:16:00 2021, MaxMem=   104857600 cpu:             301.1 elap:               6.4
 (Enter /s/ls4/users/knvvv/bin/g16sse/l303.exe)
 DipDrv:  MaxL=1.
 Leave Link  303 at Fri Apr 16 23:16:00 2021, MaxMem=   104857600 cpu:              11.4 elap:               0.3
 (Enter /s/ls4/users/knvvv/bin/g16sse/l401.exe)
 SCF N**3 symmetry information disabled.
 ExpMin= 5.97D-02 ExpMax= 1.53D+04 ExpMxC= 5.22D+02 IAcc=3 IRadAn=         5 AccDes= 0.00D+00
 Harris functional with IExCor= 1009 and IRadAn=       5 diagonalized for initial guess.
 HarFok:  IExCor= 1009 AccDes= 0.00D+00 IRadAn=         5 IDoV= 1 UseB2=F ITyADJ=14
 ICtDFT=  3500011 ScaDFX=  1.000000  1.000000  1.000000  1.000000
 FoFCou: FMM=F IPFlag=           0 FMFlag=      100000 FMFlg1=           0
         NFxFlg=           0 DoJE=T BraDBF=F KetDBF=T FulRan=T
         wScrn=  0.000000 ICntrl=       500 IOpCl=  0 I1Cent=   200000004 NGrid=           0
         NMat0=    1 NMatS0=      1 NMatT0=    0 NMatD0=    1 NMtDS0=    0 NMtDT0=    0
 Petite list used in FoFCou.
 Harris En= -74.9294150246819    
 JPrj=0 DoOrth=F DoCkMO=F.
 Initial guess orbital symmetries:
 Alpha Orbitals:
       Occupied  (A1G) (A1G) (T1U) (T1U) (T1U)
       Virtual   (A1G) (T1U) (T1U) (T1U) (T2G) (T2G) (T2G) (EG)
                 (EG) (T1U) (T1U) (T1U) (A1G) (T2U) (T2U) (T2U)
                 (A2U) (T1U) (T1U) (T1U) (T2G) (T2G) (T2G) (EG)
                 (EG) (T1U) (T1U) (T1U) (T2U) (T2U) (T2U) (A2U)
                 (T1U) (T1U) (T1U) (T2G) (T2G) (T2G) (EG) (EG)
                 (A1G)
 Beta  Orbitals:
       Occupied  (A1G) (A1G) (T1U)
       Virtual   (T1U) (T1U) (A1G) (T1U) (T1U) (T1U) (T2G) (T2G)
                 (T2G) (EG) (EG) (T1U) (T1U) (T1U) (A1G) (T2U)
                 (T2U) (T2U) (A2U) (T1U) (T1U) (T1U) (T2G) (T2G)
                 (T2G) (EG) (EG) (T1U) (T1U) (T1U) (T2U) (T2U)
                 (T2U) (A2U) (T1U) (T1U) (T1U) (T2G) (T2G) (T2G)
                 (EG) (EG) (A1G)
 Initial guess <Sx>= 0.0000 <Sy>= 0.0000 <Sz>= 1.0000 <S**2>= 2.0000 S= 1.0000
 Leave Link  401 at Fri Apr 16 23:16:05 2021, MaxMem=   104857600 cpu:             246.2 elap:               5.3
 (Enter /s/ls4/users/knvvv/bin/g16sse/l502.exe)
 Keep R1 and R2 ints in memory in symmetry-blocked form, NReq=42654035.
 FoFCou: FMM=F IPFlag=           0 FMFlag=           0 FMFlg1=           0
         NFxFlg=           0 DoJE=F BraDBF=F KetDBF=F FulRan=T
         wScrn=  0.000000 ICntrl=       600 IOpCl=  0 I1Cent=           0 NGrid=           0
         NMat0=    1 NMatS0=   1081 NMatT0=    0 NMatD0=    1 NMtDS0=    0 NMtDT0=    0
 Petite list used in FoFCou.
 UHF open shell SCF:
 Using DIIS extrapolation, IDIIS=  1040.
 NGot=   104857600 LenX=   104686972 LenY=   104683506
 Requested convergence on RMS density matrix=1.00D-08 within 128 cycles.
 Requested convergence on MAX density matrix=1.00D-06.
 Requested convergence on             energy=1.00D-06.
 No special actions if energy rises.
 Integral accuracy reduced to 1.0D-05 until final iterations.

 Cycle   1  Pass 0  IDiag  1:
 Density matrix breaks symmetry, PCut= 1.00D-04
 Density matrix has no symmetry -- integrals replicated.
 E= -75.0552751386839    
 DIIS: error= 2.95D-02 at cycle   1 NSaved=   1.
 NSaved= 1 IEnMin= 1 EnMin= -75.0552751386839     IErMin= 1 ErrMin= 2.95D-02
 ErrMax= 2.95D-02  0.00D+00 EMaxC= 1.00D-01 BMatC= 6.30D-02 BMatP= 6.30D-02
 IDIUse=3 WtCom= 7.05D-01 WtEn= 2.95D-01
 Coeff-Com:  0.100D+01
 Coeff-En:   0.100D+01
 Coeff:      0.100D+01
 Gap=     0.686 Goal=   None    Shift=    0.000
 Gap=     0.321 Goal=   None    Shift=    0.000
 GapD=    0.321 DampG=1.000 DampE=0.500 DampFc=0.5000 IDamp=-1.
 Damping current iteration by 5.00D-01
 RMSDP=3.39D-03 MaxDP=1.03D-01              OVMax= 6.09D-02

 Cycle   2  Pass 0  IDiag  1:
 Density matrix breaks symmetry, PCut= 1.00D-04
 Density matrix has no symmetry -- integrals replicated.
 E= -75.0602696735251     Delta-E=       -0.004994534841 Rises=F Damp=T
 DIIS: error= 1.24D-02 at cycle   2 NSaved=   2.
 NSaved= 2 IEnMin= 2 EnMin= -75.0602696735251     IErMin= 2 ErrMin= 1.24D-02
 ErrMax= 1.24D-02  0.00D+00 EMaxC= 1.00D-01 BMatC= 1.35D-02 BMatP= 6.30D-02
 IDIUse=3 WtCom= 8.76D-01 WtEn= 1.24D-01
 Coeff-Com: -0.551D+00 0.155D+01
 Coeff-En:   0.000D+00 0.100D+01
 Coeff:     -0.483D+00 0.148D+01
 Gap=     0.589 Goal=   None    Shift=    0.000
 Gap=     0.304 Goal=   None    Shift=    0.000
 RMSDP=1.46D-03 MaxDP=5.74D-02 DE=-4.99D-03 OVMax= 2.48D-02

 Cycle   3  Pass 0  IDiag  1:
 Density matrix breaks symmetry, PCut= 1.00D-04
 Density matrix has no symmetry -- integrals replicated.
 E= -75.0657367907203     Delta-E=       -0.005467117195 Rises=F Damp=F
 DIIS: error= 3.13D-03 at cycle   3 NSaved=   3.
 NSaved= 3 IEnMin= 3 EnMin= -75.0657367907203     IErMin= 3 ErrMin= 3.13D-03
 ErrMax= 3.13D-03  0.00D+00 EMaxC= 1.00D-01 BMatC= 6.80D-04 BMatP= 1.35D-02
 IDIUse=3 WtCom= 9.69D-01 WtEn= 3.13D-02
 Coeff-Com: -0.167D+00 0.256D+00 0.912D+00
 Coeff-En:   0.000D+00 0.000D+00 0.100D+01
 Coeff:     -0.162D+00 0.248D+00 0.915D+00
 Gap=     0.591 Goal=   None    Shift=    0.000
 Gap=     0.303 Goal=   None    Shift=    0.000
 RMSDP=4.89D-04 MaxDP=1.57D-02 DE=-5.47D-03 OVMax= 6.75D-03

 Cycle   4  Pass 0  IDiag  1:
 Density matrix breaks symmetry, PCut= 1.00D-04
 Density matrix has no symmetry -- integrals replicated.
 E= -75.0659188287107     Delta-E=       -0.000182037990 Rises=F Damp=F
 DIIS: error= 9.07D-04 at cycle   4 NSaved=   4.
 NSaved= 4 IEnMin= 4 EnMin= -75.0659188287107     IErMin= 4 ErrMin= 9.07D-04
 ErrMax= 9.07D-04  0.00D+00 EMaxC= 1.00D-01 BMatC= 2.55D-05 BMatP= 6.80D-04
 IDIUse=3 WtCom= 9.91D-01 WtEn= 9.07D-03
 Coeff-Com:  0.831D-01-0.154D+00-0.278D+00 0.135D+01
 Coeff-En:   0.000D+00 0.000D+00 0.000D+00 0.100D+01
 Coeff:      0.823D-01-0.152D+00-0.276D+00 0.135D+01
 Gap=     0.592 Goal=   None    Shift=    0.000
 Gap=     0.302 Goal=   None    Shift=    0.000
 RMSDP=1.62D-04 MaxDP=7.50D-03 DE=-1.82D-04 OVMax= 3.35D-03

 Cycle   5  Pass 0  IDiag  1:
 Density matrix breaks symmetry, PCut= 1.00D-04
 Density matrix has no symmetry -- integrals replicated.
 E= -75.0659312923747     Delta-E=       -0.000012463664 Rises=F Damp=F
 DIIS: error= 6.31D-05 at cycle   5 NSaved=   5.
 NSaved= 5 IEnMin= 5 EnMin= -75.0659312923747     IErMin= 5 ErrMin= 6.31D-05
 ErrMax= 6.31D-05  0.00D+00 EMaxC= 1.00D-01 BMatC= 2.38D-07 BMatP= 2.55D-05
 IDIUse=1 WtCom= 1.00D+00 WtEn= 0.00D+00
 Coeff-Com: -0.174D-01 0.338D-01 0.460D-01-0.291D+00 0.123D+01
 Coeff:     -0.174D-01 0.338D-01 0.460D-01-0.291D+00 0.123D+01
 Gap=     0.592 Goal=   None    Shift=    0.000
 Gap=     0.301 Goal=   None    Shift=    0.000
 RMSDP=1.31D-05 MaxDP=4.67D-04 DE=-1.25D-05 OVMax= 2.67D-04

 Cycle   6  Pass 0  IDiag  1:
 Density matrix breaks symmetry, PCut= 1.00D-04
 Density matrix has no symmetry -- integrals replicated.
 E= -75.0659313904268     Delta-E=       -0.000000098052 Rises=F Damp=F
 DIIS: error= 9.75D-06 at cycle   6 NSaved=   6.
 NSaved= 6 IEnMin= 6 EnMin= -75.0659313904268     IErMin= 6 ErrMin= 9.75D-06
 ErrMax= 9.75D-06  0.00D+00 EMaxC= 1.00D-01 BMatC= 4.51D-09 BMatP= 2.38D-07
 IDIUse=1 WtCom= 1.00D+00 WtEn= 0.00D+00
 Coeff-Com:  0.843D-03-0.177D-02-0.138D-02 0.125D-01-0.194D+00 0.118D+01
 Coeff:      0.843D-03-0.177D-02-0.138D-02 0.125D-01-0.194D+00 0.118D+01
 Gap=     0.592 Goal=   None    Shift=    0.000
 Gap=     0.301 Goal=   None    Shift=    0.000
 RMSDP=2.37D-06 MaxDP=8.81D-05 DE=-9.81D-08 OVMax= 4.93D-05

 Initial convergence to 1.0D-05 achieved.  Increase integral accuracy.
 Cycle   7  Pass 1  IDiag  1:
 Density matrix breaks symmetry, PCut= 1.00D-04
 Density matrix has no symmetry -- integrals replicated.
 E= -75.0659357196707     Delta-E=       -0.000004329244 Rises=F Damp=F
 DIIS: error= 1.41D-04 at cycle   1 NSaved=   1.
 NSaved= 1 IEnMin= 1 EnMin= -75.0659357196707     IErMin= 1 ErrMin= 1.41D-04
 ErrMax= 1.41D-04  0.00D+00 EMaxC= 1.00D-01 BMatC= 3.20D-07 BMatP= 3.20D-07
 IDIUse=3 WtCom= 9.99D-01 WtEn= 1.41D-03
 Coeff-Com:  0.100D+01
 Coeff-En:   0.100D+01
 Coeff:      0.100D+01
 Gap=     0.592 Goal=   None    Shift=    0.000
 Gap=     0.301 Goal=   None    Shift=    0.000
 RMSDP=2.37D-06 MaxDP=8.81D-05 DE=-4.33D-06 OVMax= 6.25D-05

 Cycle   8  Pass 1  IDiag  1:
 Density matrix breaks symmetry, PCut= 1.00D-04
 Density matrix has no symmetry -- integrals replicated.
 E= -75.0659357477195     Delta-E=       -0.000000028049 Rises=F Damp=F
 DIIS: error= 4.97D-06 at cycle   2 NSaved=   2.
 NSaved= 2 IEnMin= 2 EnMin= -75.0659357477195     IErMin= 2 ErrMin= 4.97D-06
 ErrMax= 4.97D-06  0.00D+00 EMaxC= 1.00D-01 BMatC= 1.42D-09 BMatP= 3.20D-07
 IDIUse=1 WtCom= 1.00D+00 WtEn= 0.00D+00
 Coeff-Com: -0.367D-01 0.104D+01
 Coeff:     -0.367D-01 0.104D+01
 Gap=     0.592 Goal=   None    Shift=    0.000
 Gap=     0.301 Goal=   None    Shift=    0.000
 RMSDP=4.63D-07 MaxDP=1.61D-05 DE=-2.80D-08 OVMax= 9.27D-06

 Cycle   9  Pass 1  IDiag  1:
 Density matrix breaks symmetry, PCut= 1.00D-04
 Density matrix has no symmetry -- integrals replicated.
 E= -75.0659357479320     Delta-E=       -0.000000000212 Rises=F Damp=F
 DIIS: error= 1.35D-06 at cycle   3 NSaved=   3.
 NSaved= 3 IEnMin= 3 EnMin= -75.0659357479320     IErMin= 3 ErrMin= 1.35D-06
 ErrMax= 1.35D-06  0.00D+00 EMaxC= 1.00D-01 BMatC= 1.19D-10 BMatP= 1.42D-09
 IDIUse=1 WtCom= 1.00D+00 WtEn= 0.00D+00
 Coeff-Com: -0.614D-02 0.939D-01 0.912D+00
 Coeff:     -0.614D-02 0.939D-01 0.912D+00
 Gap=     0.592 Goal=   None    Shift=    0.000
 Gap=     0.301 Goal=   None    Shift=    0.000
 RMSDP=1.84D-07 MaxDP=5.66D-06 DE=-2.12D-10 OVMax= 2.17D-06

 Cycle  10  Pass 1  IDiag  1:
 Density matrix breaks symmetry, PCut= 1.00D-04
 Density matrix has no symmetry -- integrals replicated.
 E= -75.0659357479470     Delta-E=       -0.000000000015 Rises=F Damp=F
 DIIS: error= 5.97D-07 at cycle   4 NSaved=   4.
 NSaved= 4 IEnMin= 4 EnMin= -75.0659357479470     IErMin= 4 ErrMin= 5.97D-07
 ErrMax= 5.97D-07  0.00D+00 EMaxC= 1.00D-01 BMatC= 2.34D-11 BMatP= 1.19D-10
 IDIUse=1 WtCom= 1.00D+00 WtEn= 0.00D+00
 Coeff-Com:  0.931D-03-0.530D-01 0.297D+00 0.755D+00
 Coeff:      0.931D-03-0.530D-01 0.297D+00 0.755D+00
 Gap=     0.592 Goal=   None    Shift=    0.000
 Gap=     0.301 Goal=   None    Shift=    0.000
 RMSDP=7.25D-08 MaxDP=2.53D-06 DE=-1.50D-11 OVMax= 1.11D-06

 Cycle  11  Pass 1  IDiag  1:
 Density matrix breaks symmetry, PCut= 1.00D-04
 Density matrix has no symmetry -- integrals replicated.
 E= -75.0659357479509     Delta-E=       -0.000000000004 Rises=F Damp=F
 DIIS: error= 4.90D-08 at cycle   5 NSaved=   5.
 NSaved= 5 IEnMin= 5 EnMin= -75.0659357479509     IErMin= 5 ErrMin= 4.90D-08
 ErrMax= 4.90D-08  0.00D+00 EMaxC= 1.00D-01 BMatC= 1.20D-13 BMatP= 2.34D-11
 IDIUse=1 WtCom= 1.00D+00 WtEn= 0.00D+00
 Coeff-Com: -0.850D-04 0.962D-02-0.821D-01-0.173D+00 0.125D+01
 Coeff:     -0.850D-04 0.962D-02-0.821D-01-0.173D+00 0.125D+01
 Gap=     0.592 Goal=   None    Shift=    0.000
 Gap=     0.301 Goal=   None    Shift=    0.000
 RMSDP=8.55D-09 MaxDP=3.43D-07 DE=-3.85D-12 OVMax= 2.01D-07

 Density matrix breaks symmetry, PCut= 1.00D-04
 Density matrix has no symmetry -- integrals replicated.
 SCF Done:  E(UM062X) =  -75.0659357480     A.U. after   11 cycles
            NFock= 11  Conv=0.85D-08     -V/T= 2.0043
 <Sx>= 0.0000 <Sy>= 0.0000 <Sz>= 1.0000 <S**2>= 2.0052 S= 1.0017
 <L.S>= 0.000000000000E+00
 KE= 7.474478574711D+01 PE=-1.779221777155D+02 EE= 2.811145622047D+01
 Annihilation of the first spin contaminant:
 S**2 before annihilation     2.0052,   after     2.0000
 Leave Link  502 at Fri Apr 16 23:17:03 2021, MaxMem=   104857600 cpu:            2698.3 elap:              57.4
 (Enter /s/ls4/users/knvvv/bin/g16sse/l601.exe)
 Copying SCF densities to generalized density rwf, IOpCl= 1 IROHF=0.
 SCF density gives NOpUse=  1 NOpAll= 48.
 Marking SCF density as not fully symmetric.

 **********************************************************************

            Population analysis using the SCF density.

 **********************************************************************

 Orbital symmetries:
 Alpha Orbitals:
       Occupied  (A1G) (?A) (?B) (?B) (?B)
       Virtual   (?B) (?B) (?A) (?B) (?A) (?A) (?A) (?A) (?A) (?B)
                 (?B) (?B) (?A) (?B) (?B) (?B) (?B) (?B) (?B) (?B)
                 (?A) (?A) (?A) (?A) (?A) (T1U) (T1U) (T1U) (?C)
                 (?C) (?C) (?C) (?C) (?C) (?C) (?A) (?A) (?A) (?A)
                 (?A) (?A)
 Beta  Orbitals:
       Occupied  (A1G) (A1G) (?A)
       Virtual   (?A) (?A) (?B) (?A) (?A) (?A) (?B) (?B) (?B) (?B)
                 (?B) (?A) (?A) (?A) (?B) (?A) (?A) (?A) (?A) (?A)
                 (?A) (?A) (?B) (?B) (?B) (?B) (?B) (?A) (?A) (?A)
                 (?A) (?A) (?A) (?A) (?A) (?A) (?A) (?C) (?C) (?C)
                 (?C) (?C) (?C)
 Unable to determine electronic state:  an orbital has unidentified symmetry.
 Alpha  occ. eigenvalues --  -19.76859  -1.15115  -0.55182  -0.55182  -0.48608
 Alpha virt. eigenvalues --    0.10572   0.10572   0.10580   0.11243   0.55861
 Alpha virt. eigenvalues --    0.55861   0.55951   0.55951   0.56133   0.74701
 Alpha virt. eigenvalues --    0.74701   0.77378   1.09027   1.84375   1.84375
 Alpha virt. eigenvalues --    1.85397   1.85397   1.86031   1.86031   1.86267
 Alpha virt. eigenvalues --    1.87149   1.87149   1.89560   1.89560   1.90268
 Alpha virt. eigenvalues --    3.67406   3.67406   3.72874   5.93307   5.93307
 Alpha virt. eigenvalues --    5.96349   5.96349   5.98407   5.98407   5.99210
 Alpha virt. eigenvalues --    6.33125   6.33125   6.38937   6.38937   6.40684
 Alpha virt. eigenvalues --    7.75000
  Beta  occ. eigenvalues --  -19.73181  -0.96471  -0.41357
  Beta virt. eigenvalues --   -0.11213  -0.11213   0.07608   0.11114   0.12346
  Beta virt. eigenvalues --    0.12346   0.47154   0.47154   0.51418   0.53333
  Beta virt. eigenvalues --    0.53333   0.76817   0.76817   0.77969   1.13359
  Beta virt. eigenvalues --    1.75251   1.75251   1.81510   1.81510   1.81780
  Beta virt. eigenvalues --    1.81780   1.83127   1.91125   1.91125   1.91670
  Beta virt. eigenvalues --    1.91670   1.92676   3.75966   3.81338   3.81338
  Beta virt. eigenvalues --    5.95830   5.97082   5.97082   5.97856   5.97856
  Beta virt. eigenvalues --    6.01677   6.01677   6.48563   6.53193   6.53193
  Beta virt. eigenvalues --    6.55578   6.55578   7.82497
          Condensed to atoms (all electrons):
               1
     1  O    8.000000
          Atomic-Atomic Spin Densities.
               1
     1  O    2.000000
 Mulliken charges and spin densities:
               1          2
     1  O   -0.000000   2.000000
 Sum of Mulliken charges =  -0.00000   2.00000
 Mulliken charges and spin densities with hydrogens summed into heavy atoms:
               1          2
     1  O   -0.000000   2.000000
 Electronic spatial extent (au):  <R**2>=             11.5349
 Charge=             -0.0000 electrons
 Dipole moment (field-independent basis, Debye):
    X=              0.0000    Y=             -0.0000    Z=             -0.0000  Tot=              0.0000
 Quadrupole moment (field-independent basis, Debye-Ang):
   XX=             -4.7526   YY=             -4.7529   ZZ=             -6.0093
   XY=             -0.0000   XZ=             -0.0000   YZ=             -0.0184
 Traceless Quadrupole moment (field-independent basis, Debye-Ang):
   XX=              0.4190   YY=              0.4187   ZZ=             -0.8377
   XY=             -0.0000   XZ=             -0.0000   YZ=             -0.0184
 Octapole moment (field-independent basis, Debye-Ang**2):
  XXX=              0.0000  YYY=             -0.0000  ZZZ=              0.0000  XYY=              0.0000
  XXY=             -0.0000  XXZ=              0.0000  XZZ=              0.0000  YZZ=             -0.0000
  YYZ=              0.0000  XYZ=              0.0000
 Hexadecapole moment (field-independent basis, Debye-Ang**3):
 XXXX=             -3.3847 YYYY=             -3.3851 ZZZZ=             -5.4752 XXXY=             -0.0000
 XXXZ=             -0.0000 YYYX=             -0.0000 YYYZ=             -0.0154 ZZZX=             -0.0000
 ZZZY=             -0.0152 XXYY=             -1.1283 XXZZ=             -1.4798 YYZZ=             -1.4799
 XXYZ=             -0.0051 YYXZ=             -0.0000 ZZXY=             -0.0000
 N-N= 0.000000000000D+00 E-N=-1.779221777226D+02  KE= 7.474478574711D+01
                          Isotropic Fermi Contact Couplings
        Atom                 a.u.       MegaHertz       Gauss      10(-4) cm-1
     1  O(17)              0.26345     -79.85129     -28.49293     -26.63552
 --------------------------------------------------------
       Center         ----  Spin Dipole Couplings  ----
                      3XX-RR        3YY-RR        3ZZ-RR
 --------------------------------------------------------
     1   Atom        1.934062      1.932820     -3.866881
 --------------------------------------------------------
                        XY            XZ            YZ
 --------------------------------------------------------
     1   Atom        0.000000     -0.000000     -0.084888
 --------------------------------------------------------


 ---------------------------------------------------------------------------------
              Anisotropic Spin Dipole Couplings in Principal Axis System
 ---------------------------------------------------------------------------------

       Atom             a.u.   MegaHertz   Gauss  10(-4) cm-1        Axes

              Baa    -3.8681   279.895    99.873    93.363  0.0000  0.0146  0.9999
     1 O(17)  Bbb     1.9341  -139.947   -49.937   -46.681 -0.0000  0.9999 -0.0146
              Bcc     1.9341  -139.947   -49.937   -46.681  1.0000  0.0000 -0.0000
 

 ---------------------------------------------------------------------------------

 No NMR shielding tensors so no spin-rotation constants.
 Leave Link  601 at Fri Apr 16 23:17:08 2021, MaxMem=   104857600 cpu:             233.3 elap:               5.0
 (Enter /s/ls4/users/knvvv/bin/g16sse/l801.exe)
 DoSCS=F DFT=T ScalE2(SS,OS)=  1.000000  1.000000
 Range of M.O.s used for correlation:     1    46
 NBasis=    46 NAE=     5 NBE=     3 NFC=     0 NFV=     0
 NROrb=     46 NOA=     5 NOB=     3 NVA=    41 NVB=    43
 Leave Link  801 at Fri Apr 16 23:17:08 2021, MaxMem=   104857600 cpu:               4.6 elap:               0.1
 (Enter /s/ls4/users/knvvv/bin/g16sse/l914.exe)
 UHF ground state
 Doing stability rather than CIS.
 Keep R1 and R2 ints in memory in symmetry-blocked form, NReq=60955191.
 FoFCou: FMM=F IPFlag=           0 FMFlag=           0 FMFlg1=           0
         NFxFlg=           0 DoJE=F BraDBF=F KetDBF=F FulRan=T
         wScrn=  0.000000 ICntrl=       600 IOpCl=  0 I1Cent=           0 NGrid=           0
         NMat0=    1 NMatS0=   1081 NMatT0=    0 NMatD0=    1 NMtDS0=    0 NMtDT0=    0
 Petite list used in FoFCou.
 MDV=   104857600 DFT=T DoStab=T Mixed=T DoRPA=F DoScal=F NonHer=F
 Making orbital integer symmetry assigments:
 Orbital symmetries:
 Alpha Orbitals:
       Occupied  (A1G) (?A) (?B) (?B) (?B)
       Virtual   (?B) (?B) (?A) (?B) (?A) (?A) (?A) (?A) (?A) (?B)
                 (?B) (?B) (?A) (?B) (?B) (?B) (?B) (?B) (?B) (?B)
                 (?A) (?A) (?A) (?A) (?A) (T1U) (T1U) (T1U) (?C)
                 (?C) (?C) (?C) (?C) (?C) (?C) (?A) (?A) (?A) (?A)
                 (?A) (?A)
 Beta  Orbitals:
       Occupied  (A1G) (A1G) (?A)
       Virtual   (?A) (?A) (?B) (?A) (?A) (?A) (?B) (?B) (?B) (?B)
                 (?B) (?A) (?A) (?A) (?B) (?A) (?A) (?A) (?A) (?A)
                 (?A) (?A) (?B) (?B) (?B) (?B) (?B) (?A) (?A) (?A)
                 (?A) (?A) (?A) (?A) (?A) (?A) (?A) (?C) (?C) (?C)
                 (?C) (?C) (?C)
    24 initial guesses have been made.
 Convergence on wavefunction:    0.001000000000000
 Davidson Disk Diagonalization:  ConvIn= 1.00D-03 SkipCon=T Conv= 1.00D-03.
 Max sub-space:   668 roots to seek:    24 dimension of matrix:          334
 Iteration     1 Dimension    24 NMult     0 NNew     24
 CISAX will form    24 AO SS matrices at one time.
 NMat=    24 NSing=    24 JSym2X= 2.
 Excitation Energies [eV] at current iteration:
 Root      1 :     0.365373224970541
 Root      2 :     0.365379450400902
 Root      3 :    10.018474384793340
 Root      4 :    11.093135135313510
 Root      5 :    11.093175411525410
 Root      6 :    11.510523100203340
 Root      7 :    12.044355551777120
 Root      8 :    12.730175218021160
 Root      9 :    12.730175298319600
 Root     10 :    13.235611741072150
 Root     11 :    13.468828889152840
 Root     12 :    13.474921295963410
 Root     13 :    14.388474364728710
 Root     14 :    14.388475653746990
 Root     15 :    14.676295166884460
 Root     16 :    14.704421470619650
 Root     17 :    14.704421479987070
 Root     18 :    15.991715751858370
 Root     19 :    16.326281228375250
 Root     20 :    16.649408936875880
 Root     21 :    20.296679023289960
 Root     22 :    20.296785514957110
 Root     23 :    21.724030157492250
 Root     24 :    22.470697081816510
 Iteration     2 Dimension    48 NMult    24 NNew     24
 CISAX will form    24 AO SS matrices at one time.
 NMat=    24 NSing=    24 JSym2X= 2.
 Root      1 not converged, maximum delta is    0.090222440827241
 Excitation Energies [eV] at current iteration:
 Root      1 :     0.000764990831111   Change is   -0.364608234139430
 Root      2 :     0.000772462530804   Change is   -0.364606987870098
 Root      3 :     9.884851898009488   Change is   -0.133622486783855
 Root      4 :    11.007338226119070   Change is   -0.085796909194433
 Root      5 :    11.007376334573440   Change is   -0.085799076951971
 Root      6 :    11.030655533385960   Change is   -0.479867566817382
 Root      7 :    11.794067719332730   Change is   -4.197648032525640
 Root      8 :    11.883435912180950   Change is   -0.160919639596173
 Root      9 :    11.898830895302730   Change is   -4.427450333072514
 Root     10 :    12.545727064997490   Change is   -0.184448153023676
 Root     11 :    12.545727098124190   Change is   -0.184448200195409
 Root     12 :    12.874839135985840   Change is   -0.360772605086305
 Root     13 :    13.798799956051650   Change is    0.329971066898806
 Root     14 :    13.827493436807090   Change is    0.352572140843687
 Root     15 :    14.041607834442730   Change is   -0.346866530285979
 Root     16 :    14.041608817463970   Change is   -0.346866836283020
 Root     17 :    14.548659123197810   Change is   -0.155762347421843
 Root     18 :    14.548659130417830   Change is   -0.155762349569238
 Root     19 :    14.632445646029820   Change is   -0.043849520854642
 Root     20 :    15.650622791792410   Change is   -0.998786145083472
 Root     21 :    20.211193511089800   Change is   -0.085485512200170
 Root     22 :    20.211295332681700   Change is   -0.085490182275409
 Root     23 :    21.141306121860680   Change is   -0.582724035631567
 Root     24 :    21.775656520661570   Change is   -0.695040561154939
 Iteration     3 Dimension    51 NMult    48 NNew      3
 CISAX will form     3 AO SS matrices at one time.
 NMat=     3 NSing=     3 JSym2X= 2.
 Root      1 not converged, maximum delta is    0.001842436898653
 Excitation Energies [eV] at current iteration:
 Root      1 :     0.000041016478269   Change is   -0.000723974352841
 Root      2 :     0.000048478329780   Change is   -0.000723984201024
 Root      3 :     9.883000513432378   Change is   -0.001851384577109
 Iteration     4 Dimension    54 NMult    51 NNew      3
 CISAX will form     3 AO SS matrices at one time.
 NMat=     3 NSing=     3 JSym2X= 2.
 Root      1 has converged.
 Excitation Energies [eV] at current iteration:
 Root      1 :     0.000040294482306   Change is   -0.000000721995964
 Root      2 :     0.000047756326952   Change is   -0.000000722002828
 Root      3 :     9.882989517544928   Change is   -0.000010995887450
 Convergence achieved on expansion vectors.
 ***********************************************************************
 Stability analysis using <AA,BB:AA,BB> singles matrix:
 ***********************************************************************
 1PDM for each excited state written to RWF  633
 Ground to excited state transition densities written to RWF  633

 Eigenvectors of the stability matrix:
 
 Excited state symmetry could not be determined.
 Eigenvector   1:  3.005-?Sym  Eigenvalue= 0.0000015  <S**2>=2.007
      3B ->  4B        0.97241
      3B ->  8B       -0.20746
 The wavefunction is stable under the perturbations considered.
 Leave Link  914 at Fri Apr 16 23:17:15 2021, MaxMem=   104857600 cpu:             316.3 elap:               6.7
 (Enter /s/ls4/users/knvvv/bin/g16sse/l508.exe)
 The wavefunction is already stable.
 Leave Link  508 at Fri Apr 16 23:17:15 2021, MaxMem=   104857600 cpu:               2.2 elap:               0.1
 (Enter /s/ls4/users/knvvv/bin/g16sse/l601.exe)
 Copying SCF densities to generalized density rwf, IOpCl= 1 IROHF=0.
 SCF density gives NOpUse=  1 NOpAll= 48.
 Marking SCF density as not fully symmetric.

 **********************************************************************

            Population analysis using the SCF density.

 **********************************************************************

 Orbital symmetries:
 Alpha Orbitals:
       Occupied  (A1G) (?A) (?B) (?B) (?B)
       Virtual   (?B) (?B) (?A) (?B) (?A) (?A) (?A) (?A) (?A) (?B)
                 (?B) (?B) (?A) (?B) (?B) (?B) (?B) (?B) (?B) (?B)
                 (?A) (?A) (?A) (?A) (?A) (T1U) (T1U) (T1U) (?C)
                 (?C) (?C) (?C) (?C) (?C) (?C) (?A) (?A) (?A) (?A)
                 (?A) (?A)
 Beta  Orbitals:
       Occupied  (A1G) (A1G) (?A)
       Virtual   (?A) (?A) (?B) (?A) (?A) (?A) (?B) (?B) (?B) (?B)
                 (?B) (?A) (?A) (?A) (?B) (?A) (?A) (?A) (?A) (?A)
                 (?A) (?A) (?B) (?B) (?B) (?B) (?B) (?A) (?A) (?A)
                 (?A) (?A) (?A) (?A) (?A) (?A) (?A) (?C) (?C) (?C)
                 (?C) (?C) (?C)
 Unable to determine electronic state:  an orbital has unidentified symmetry.
 Alpha  occ. eigenvalues --  -19.76859  -1.15115  -0.55182  -0.55182  -0.48608
 Alpha virt. eigenvalues --    0.10572   0.10572   0.10580   0.11243   0.55861
 Alpha virt. eigenvalues --    0.55861   0.55951   0.55951   0.56133   0.74701
 Alpha virt. eigenvalues --    0.74701   0.77378   1.09027   1.84375   1.84375
 Alpha virt. eigenvalues --    1.85397   1.85397   1.86031   1.86031   1.86267
 Alpha virt. eigenvalues --    1.87149   1.87149   1.89560   1.89560   1.90268
 Alpha virt. eigenvalues --    3.67406   3.67406   3.72874   5.93307   5.93307
 Alpha virt. eigenvalues --    5.96349   5.96349   5.98407   5.98407   5.99210
 Alpha virt. eigenvalues --    6.33125   6.33125   6.38937   6.38937   6.40684
 Alpha virt. eigenvalues --    7.75000
  Beta  occ. eigenvalues --  -19.73181  -0.96471  -0.41357
  Beta virt. eigenvalues --   -0.11213  -0.11213   0.07608   0.11114   0.12346
  Beta virt. eigenvalues --    0.12346   0.47154   0.47154   0.51418   0.53333
  Beta virt. eigenvalues --    0.53333   0.76817   0.76817   0.77969   1.13359
  Beta virt. eigenvalues --    1.75251   1.75251   1.81510   1.81510   1.81780
  Beta virt. eigenvalues --    1.81780   1.83127   1.91125   1.91125   1.91670
  Beta virt. eigenvalues --    1.91670   1.92676   3.75966   3.81338   3.81338
  Beta virt. eigenvalues --    5.95830   5.97082   5.97082   5.97856   5.97856
  Beta virt. eigenvalues --    6.01677   6.01677   6.48563   6.53193   6.53193
  Beta virt. eigenvalues --    6.55578   6.55578   7.82497
          Condensed to atoms (all electrons):
               1
     1  O    8.000000
          Atomic-Atomic Spin Densities.
               1
     1  O    2.000000
 Mulliken charges and spin densities:
               1          2
     1  O   -0.000000   2.000000
 Sum of Mulliken charges =  -0.00000   2.00000
 Mulliken charges and spin densities with hydrogens summed into heavy atoms:
               1          2
     1  O   -0.000000   2.000000
 Electronic spatial extent (au):  <R**2>=             11.5349
 Charge=             -0.0000 electrons
 Dipole moment (field-independent basis, Debye):
    X=              0.0000    Y=             -0.0000    Z=             -0.0000  Tot=              0.0000
 Quadrupole moment (field-independent basis, Debye-Ang):
   XX=             -4.7526   YY=             -4.7529   ZZ=             -6.0093
   XY=             -0.0000   XZ=             -0.0000   YZ=             -0.0184
 Traceless Quadrupole moment (field-independent basis, Debye-Ang):
   XX=              0.4190   YY=              0.4187   ZZ=             -0.8377
   XY=             -0.0000   XZ=             -0.0000   YZ=             -0.0184
 Octapole moment (field-independent basis, Debye-Ang**2):
  XXX=              0.0000  YYY=             -0.0000  ZZZ=              0.0000  XYY=              0.0000
  XXY=             -0.0000  XXZ=              0.0000  XZZ=              0.0000  YZZ=             -0.0000
  YYZ=              0.0000  XYZ=              0.0000
 Hexadecapole moment (field-independent basis, Debye-Ang**3):
 XXXX=             -3.3847 YYYY=             -3.3851 ZZZZ=             -5.4752 XXXY=             -0.0000
 XXXZ=             -0.0000 YYYX=             -0.0000 YYYZ=             -0.0154 ZZZX=             -0.0000
 ZZZY=             -0.0152 XXYY=             -1.1283 XXZZ=             -1.4798 YYZZ=             -1.4799
 XXYZ=             -0.0051 YYXZ=             -0.0000 ZZXY=             -0.0000
 N-N= 0.000000000000D+00 E-N=-1.779221777226D+02  KE= 7.474478574711D+01
                          Isotropic Fermi Contact Couplings
        Atom                 a.u.       MegaHertz       Gauss      10(-4) cm-1
     1  O(17)              0.26345     -79.85129     -28.49293     -26.63552
 --------------------------------------------------------
       Center         ----  Spin Dipole Couplings  ----
                      3XX-RR        3YY-RR        3ZZ-RR
 --------------------------------------------------------
     1   Atom        1.934062      1.932820     -3.866881
 --------------------------------------------------------
                        XY            XZ            YZ
 --------------------------------------------------------
     1   Atom        0.000000     -0.000000     -0.084888
 --------------------------------------------------------


 ---------------------------------------------------------------------------------
              Anisotropic Spin Dipole Couplings in Principal Axis System
 ---------------------------------------------------------------------------------

       Atom             a.u.   MegaHertz   Gauss  10(-4) cm-1        Axes

              Baa    -3.8681   279.895    99.873    93.363  0.0000  0.0146  0.9999
     1 O(17)  Bbb     1.9341  -139.947   -49.937   -46.681 -0.0000  0.9999 -0.0146
              Bcc     1.9341  -139.947   -49.937   -46.681  1.0000  0.0000 -0.0000
 

 ---------------------------------------------------------------------------------

 No NMR shielding tensors so no spin-rotation constants.
 Leave Link  601 at Fri Apr 16 23:17:20 2021, MaxMem=   104857600 cpu:             259.6 elap:               5.6
 (Enter /s/ls4/users/knvvv/bin/g16sse/l9999.exe)

 Test job not archived.
 1\1\GINC-N149\Stability\UM062X\Gen\O1(3)\KNVVV\16-Apr-2021\0\\#P M062X
 /GEN Integral=UltraFineGrid SCF=NoSymm Stable=(RExt, Opt) IOp(1/33=1)\
 \Database calculations.\\0,3\O,0,0.,0.,0.\\Version=ES64L-G16RevA.03\HF
 =-75.0659357\S2=2.005171\S2-1=0.\S2A=2.000009\RMSD=8.547e-09\Dipole=0.
 ,0.,0.\Quadrupole=-0.6228087,0.3113043,0.3115044,-0.0136723,0.,0.\PG=O
 H [O(O1)]\\@


 IF AT FIRST YOU DON'T SUCCEED, TRY, TRY AGAIN.
 THEN GIVE UP;
 THERE'S NO USE BEING A DAMN FOOL ABOUT IT.

                                 -- W. C. FIELDS
 Job cpu time:       0 days  1 hours  8 minutes 54.1 seconds.
 Elapsed time:       0 days  0 hours  1 minutes 28.3 seconds.
 File lengths (MBytes):  RWF=     10 Int=      0 D2E=      0 Chk=      1 Scr=      1
 Normal termination of Gaussian 16 at Fri Apr 16 23:17:20 2021.
