 Entering Gaussian System, Link 0=/s/ls4/users/knvvv/bin/g16sse/g16
 Input=data/database/M062X--def2-QZVP--BH76_RKT04.gjf
 Output=data/database/M062X--def2-QZVP--BH76_RKT04.log
 Initial command:
 /s/ls4/users/knvvv/bin/g16sse/l1.exe "/s/ls4/users/knvvv/bin/scratch/Gau-17798.inp" -scrdir="/s/ls4/users/knvvv/bin/scratch/"
 Entering Link 1 = /s/ls4/users/knvvv/bin/g16sse/l1.exe PID=     17799.
  
 Copyright (c) 1988,1990,1992,1993,1995,1998,2003,2009,2016,
            Gaussian, Inc.  All Rights Reserved.
  
 This is part of the Gaussian(R) 16 program.  It is based on
 the Gaussian(R) 09 system (copyright 2009, Gaussian, Inc.),
 the Gaussian(R) 03 system (copyright 2003, Gaussian, Inc.),
 the Gaussian(R) 98 system (copyright 1998, Gaussian, Inc.),
 the Gaussian(R) 94 system (copyright 1995, Gaussian, Inc.),
 the Gaussian 92(TM) system (copyright 1992, Gaussian, Inc.),
 the Gaussian 90(TM) system (copyright 1990, Gaussian, Inc.),
 the Gaussian 88(TM) system (copyright 1988, Gaussian, Inc.),
 the Gaussian 86(TM) system (copyright 1986, Carnegie Mellon
 University), and the Gaussian 82(TM) system (copyright 1983,
 Carnegie Mellon University). Gaussian is a federally registered
 trademark of Gaussian, Inc.
  
 This software contains proprietary and confidential information,
 including trade secrets, belonging to Gaussian, Inc.
  
 This software is provided under written license and may be
 used, copied, transmitted, or stored only in accord with that
 written license.
  
 The following legend is applicable only to US Government
 contracts under FAR:
  
                    RESTRICTED RIGHTS LEGEND
  
 Use, reproduction and disclosure by the US Government is
 subject to restrictions as set forth in subparagraphs (a)
 and (c) of the Commercial Computer Software - Restricted
 Rights clause in FAR 52.227-19.
  
 Gaussian, Inc.
 340 Quinnipiac St., Bldg. 40, Wallingford CT 06492
  
  
 ---------------------------------------------------------------
 Warning -- This program may not be used in any manner that
 competes with the business of Gaussian, Inc. or will provide
 assistance to any competitor of Gaussian, Inc.  The licensee
 of this program is prohibited from giving any competitor of
 Gaussian, Inc. access to this program.  By using this program,
 the user acknowledges that Gaussian, Inc. is engaged in the
 business of creating and licensing software in the field of
 computational chemistry and represents and warrants to the
 licensee that it is not a competitor of Gaussian, Inc. and that
 it will not use this program in any manner prohibited above.
 ---------------------------------------------------------------
  

 Cite this work as:
 Gaussian 16, Revision A.03,
 M. J. Frisch, G. W. Trucks, H. B. Schlegel, G. E. Scuseria, 
 M. A. Robb, J. R. Cheeseman, G. Scalmani, V. Barone, 
 G. A. Petersson, H. Nakatsuji, X. Li, M. Caricato, A. V. Marenich, 
 J. Bloino, B. G. Janesko, R. Gomperts, B. Mennucci, H. P. Hratchian, 
 J. V. Ortiz, A. F. Izmaylov, J. L. Sonnenberg, D. Williams-Young, 
 F. Ding, F. Lipparini, F. Egidi, J. Goings, B. Peng, A. Petrone, 
 T. Henderson, D. Ranasinghe, V. G. Zakrzewski, J. Gao, N. Rega, 
 G. Zheng, W. Liang, M. Hada, M. Ehara, K. Toyota, R. Fukuda, 
 J. Hasegawa, M. Ishida, T. Nakajima, Y. Honda, O. Kitao, H. Nakai, 
 T. Vreven, K. Throssell, J. A. Montgomery, Jr., J. E. Peralta, 
 F. Ogliaro, M. J. Bearpark, J. J. Heyd, E. N. Brothers, K. N. Kudin, 
 V. N. Staroverov, T. A. Keith, R. Kobayashi, J. Normand, 
 K. Raghavachari, A. P. Rendell, J. C. Burant, S. S. Iyengar, 
 J. Tomasi, M. Cossi, J. M. Millam, M. Klene, C. Adamo, R. Cammi, 
 J. W. Ochterski, R. L. Martin, K. Morokuma, O. Farkas, 
 J. B. Foresman, and D. J. Fox, Gaussian, Inc., Wallingford CT, 2016.
 
 ******************************************
 Gaussian 16:  ES64L-G16RevA.03 25-Dec-2016
                16-Apr-2021 
 ******************************************
 %RWF=temp23_90254,70GB
 %nprocshared=48
 Will use up to   48 processors via shared memory.
 Default route: MaxDisk=80GB
 ----------------------------------------------------------------------
 #P M062X/Def2QZVP Integral=UltraFineGrid SCF=NoSymm Stable=(RExt, Opt)
  IOp(1/33=1)
 ----------------------------------------------------------------------
 1/33=1,38=1,172=1/1;
 2/12=2,17=6,18=5,40=1/2;
 3/5=45,7=101,11=2,25=1,30=1,74=-55,75=-5/1,2,3;
 4/9=2/1;
 5/5=2,38=5/2;
 6/7=2,8=2,9=2,10=2,28=1/1;
 8/6=1,10=90,11=11/1;
 9/8=-3,42=1,46=1/14;
 5/5=2,8=3,17=40,38=5/8(-2);
 6/7=2,8=2,9=2,10=2,28=1/1;
 99/5=1,9=1/99;
 Leave Link    1 at Fri Apr 16 22:55:59 2021, MaxMem=           0 cpu:              10.8 elap:               0.3
 (Enter /s/ls4/users/knvvv/bin/g16sse/l101.exe)
 ONIOM data not found on unit 2.
 ----------------------
 Database calculations.
 ----------------------
 TstMul:  ICh=     0
 TstMul:  Mul=     2
 TstMul:  ICh=     0
 TstMul:  Mul=     2
 Symbolic Z-matrix:
 Charge =  0 Multiplicity = 2
 C                    -1.21149   0.00797   0.00041 
 O                     1.29397  -0.10869   0.00013 
 H                     0.00948  -0.11802   0.0028 
 H                    -1.52553  -0.23325   1.01007 
 H                    -1.43067   1.03323  -0.27808 
 H                    -1.55271  -0.71011  -0.7377 
 H                     1.41664   0.8499   -0.00059 
 
 RdStrC is calling ZToCFu for IStruc=1 NZ=     7.
 PrtBox:  NBox=     1 Levels=  1 BoxLen=    8.00 SMaxX=        5.61
          Shift=            2.934200            1.341920            1.394060
 Box      1 Number                   0 centers from      1 to      7:
 After GenITR:
 ITRead=  0  0  0  0  0  0  0
 MicOpt= -1 -1 -1 -1 -1 -1 -1
 ITRead=  0  0  0  0  0  0  0
 MicOpt= -1 -1 -1 -1 -1 -1 -1
 NAtoms=      7 NQM=        7 NQMF=       0 NMMI=      0 NMMIF=      0
                NMic=       0 NMicF=      0.
                    Isotopes and Nuclear Properties:
 (Nuclear quadrupole moments (NQMom) in fm**2, nuclear magnetic moments (NMagM)
  in nuclear magnetons)

  Atom         1           2           3           4           5           6           7
 IAtWgt=          12          16           1           1           1           1           1
 AtmWgt=  12.0000000  15.9949146   1.0078250   1.0078250   1.0078250   1.0078250   1.0078250
 NucSpn=           0           0           1           1           1           1           1
 AtZEff=  -0.0000000  -0.0000000  -0.0000000  -0.0000000  -0.0000000  -0.0000000  -0.0000000
 NQMom=    0.0000000   0.0000000   0.0000000   0.0000000   0.0000000   0.0000000   0.0000000
 NMagM=    0.0000000   0.0000000   2.7928460   2.7928460   2.7928460   2.7928460   2.7928460
 AtZNuc=   6.0000000   8.0000000   1.0000000   1.0000000   1.0000000   1.0000000   1.0000000
 No MM parameters found.
 Leave Link  101 at Fri Apr 16 22:55:59 2021, MaxMem=   104857600 cpu:               8.7 elap:               0.2
 (Enter /s/ls4/users/knvvv/bin/g16sse/l202.exe)
                          Input orientation:                          
 ---------------------------------------------------------------------
 Center     Atomic      Atomic             Coordinates (Angstroms)
 Number     Number       Type             X           Y           Z
 ---------------------------------------------------------------------
      1          6           0       -1.211488    0.007968    0.000407
      2          8           0        1.293965   -0.108694    0.000133
      3          1           0        0.009476   -0.118020    0.002799
      4          1           0       -1.525528   -0.233250    1.010072
      5          1           0       -1.430668    1.033234   -0.278082
      6          1           0       -1.552712   -0.710114   -0.737705
      7          1           0        1.416639    0.849896   -0.000591
 ---------------------------------------------------------------------
                    Distance matrix (angstroms):
                    1          2          3          4          5
     1  C    0.000000
     2  O    2.508168   0.000000
     3  H    1.227449   1.284526   0.000000
     4  H    1.084542   2.997505   1.839596   0.000000
     5  H    1.084789   2.967327   1.865019   1.808957   0.000000
     6  H    1.084843   3.001613   1.827389   1.811867   1.807045
     7  H    2.759691   0.966408   1.707917   3.294085   2.866666
                    6          7
     6  H    0.000000
     7  H    3.434241   0.000000
 Stoichiometry    CH5O(2)
 Framework group  C1[X(CH5O)]
 Deg. of freedom    15
 Full point group                 C1      NOp   1
 Largest Abelian subgroup         C1      NOp   1
 Largest concise Abelian subgroup C1      NOp   1
                         Standard orientation:                         
 ---------------------------------------------------------------------
 Center     Atomic      Atomic             Coordinates (Angstroms)
 Number     Number       Type             X           Y           Z
 ---------------------------------------------------------------------
      1          6           0       -1.211488    0.007968    0.000407
      2          8           0        1.293965   -0.108694    0.000133
      3          1           0        0.009476   -0.118020    0.002799
      4          1           0       -1.525528   -0.233250    1.010072
      5          1           0       -1.430668    1.033235   -0.278082
      6          1           0       -1.552712   -0.710113   -0.737705
      7          1           0        1.416639    0.849895   -0.000591
 ---------------------------------------------------------------------
 Rotational constants (GHZ):         120.8646134           9.2474361           9.1021891
 Leave Link  202 at Fri Apr 16 22:55:59 2021, MaxMem=   104857600 cpu:               5.4 elap:               0.1
 (Enter /s/ls4/users/knvvv/bin/g16sse/l301.exe)
 Standard basis: def2QZVP (5D, 7F)
 Ernie: Thresh=  0.10000D-02 Tol=  0.10000D-05 Strict=F.
 There are   319 symmetry adapted cartesian basis functions of A   symmetry.
 There are   264 symmetry adapted basis functions of A   symmetry.
   264 basis functions,   374 primitive gaussians,   319 cartesian basis functions
    10 alpha electrons        9 beta electrons
       nuclear repulsion energy        37.1187803402 Hartrees.
 IExCor= 4336 DFT=T Ex+Corr=M062X ExCW=0 ScaHFX=  0.540000
 ScaDFX=  1.000000  1.000000  1.000000  1.000000 ScalE2=  1.000000  1.000000
 IRadAn=      5 IRanWt=     -1 IRanGd=            0 ICorTp=0 IEmpDi=  4
 NAtoms=    7 NActive=    7 NUniq=    7 SFac= 1.00D+00 NAtFMM=   60 NAOKFM=F Big=F
 Integral buffers will be    131072 words long.
 Raffenetti 2 integral format.
 Two-electron integral symmetry is turned on.
 Leave Link  301 at Fri Apr 16 22:56:00 2021, MaxMem=   104857600 cpu:               6.2 elap:               0.2
 (Enter /s/ls4/users/knvvv/bin/g16sse/l302.exe)
 NPDir=0 NMtPBC=     1 NCelOv=     1 NCel=       1 NClECP=     1 NCelD=      1
         NCelK=      1 NCelE2=     1 NClLst=     1 CellRange=     0.0.
 One-electron integrals computed using PRISM.
 One-electron integral symmetry used in STVInt
 PrsmSu:  requested number of processors reduced to:   4 ShMem   1 Linda.
 PrsmSu:  requested number of processors reduced to:  21 ShMem   1 Linda.
   1 Symmetry operations used in ECPInt.
 ECPInt:  NShTT=    3570 NPrTT=    7734 LenC2=    3552 LenP2D=    6914.
 LDataN:  DoStor=T MaxTD1= 8 Len=  415
 Number of processors reduced to  27 by ecpmxn.
 NBasis=   264 RedAO= T EigKep=  1.31D-04  NBF=   264
 NBsUse=   264 1.00D-06 EigRej= -1.00D+00 NBFU=   264
 Precomputing XC quadrature grid using
 IXCGrd= 4 IRadAn=           5 IRanWt=          -1 IRanGd=           0 AccXCQ= 0.00D+00.
 Generated NRdTot=       0 NPtTot=           0 NUsed=           0 NTot=          32
 NSgBfM=   319   319   319   319   319 MxSgAt=     7 MxSgA2=     7.
 Leave Link  302 at Fri Apr 16 22:56:04 2021, MaxMem=   104857600 cpu:             192.7 elap:               4.2
 (Enter /s/ls4/users/knvvv/bin/g16sse/l303.exe)
 DipDrv:  MaxL=1.
 Leave Link  303 at Fri Apr 16 22:56:05 2021, MaxMem=   104857600 cpu:              50.8 elap:               1.1
 (Enter /s/ls4/users/knvvv/bin/g16sse/l401.exe)
 SCF N**3 symmetry information disabled.
 ExpMin= 7.60D-02 ExpMax= 1.17D+05 ExpMxC= 1.13D+03 IAcc=3 IRadAn=         5 AccDes= 0.00D+00
 Harris functional with IExCor= 1009 and IRadAn=       5 diagonalized for initial guess.
 HarFok:  IExCor= 1009 AccDes= 0.00D+00 IRadAn=         5 IDoV= 1 UseB2=F ITyADJ=14
 ICtDFT=  3500011 ScaDFX=  1.000000  1.000000  1.000000  1.000000
 FoFCou: FMM=F IPFlag=           0 FMFlag=      100000 FMFlg1=           0
         NFxFlg=           0 DoJE=T BraDBF=F KetDBF=T FulRan=T
         wScrn=  0.000000 ICntrl=       500 IOpCl=  0 I1Cent=   200000004 NGrid=           0
         NMat0=    1 NMatS0=      1 NMatT0=    0 NMatD0=    1 NMtDS0=    0 NMtDT0=    0
 Petite list used in FoFCou.
 CoulSu:  requested number of processors reduced to:  21 ShMem   1 Linda.
 CoulSu:  requested number of processors reduced to:  21 ShMem   1 Linda.
 CoulSu:  requested number of processors reduced to:  21 ShMem   1 Linda.
 CoulSu:  requested number of processors reduced to:  21 ShMem   1 Linda.
 Harris En= -116.214853027425    
 JPrj=0 DoOrth=F DoCkMO=F.
 Initial guess <Sx>= 0.0000 <Sy>= 0.0000 <Sz>= 0.5000 <S**2>= 0.7500 S= 0.5000
 Leave Link  401 at Fri Apr 16 22:56:06 2021, MaxMem=   104857600 cpu:              61.4 elap:               1.5
 (Enter /s/ls4/users/knvvv/bin/g16sse/l502.exe)
 Integral symmetry usage will be decided dynamically.
 UHF open shell SCF:
 Using DIIS extrapolation, IDIIS=  1040.
 NGot=   104857600 LenX=   104636115 LenY=   104533913
 Requested convergence on RMS density matrix=1.00D-08 within 128 cycles.
 Requested convergence on MAX density matrix=1.00D-06.
 Requested convergence on             energy=1.00D-06.
 No special actions if energy rises.
 Fock matrices will be formed incrementally for  20 cycles.
 Integral accuracy reduced to 1.0D-05 until final iterations.

 Cycle   1  Pass 0  IDiag  1:
 FoFJK:  IHMeth= 1 ICntrl=       0 DoSepK=F KAlg= 0 I1Cent=           0 FoldK=F
 IRaf= 980000000 NMat=       1 IRICut=       1 DoRegI=T DoRafI=F ISym2E= 0 IDoP0=0 IntGTp=1.
 FoFCou: FMM=F IPFlag=           0 FMFlag=      100000 FMFlg1=           0
         NFxFlg=           0 DoJE=F BraDBF=F KetDBF=F FulRan=T
         wScrn=  0.000000 ICntrl=         0 IOpCl=  1 I1Cent=           0 NGrid=           0
         NMat0=    1 NMatS0=      1 NMatT0=    0 NMatD0=    1 NMtDS0=    0 NMtDT0=    0
 Symmetry not used in FoFCou.
 CoulSu:  requested number of processors reduced to:  20 ShMem   1 Linda.
 E= -116.139943488146    
 DIIS: error= 2.81D-02 at cycle   1 NSaved=   1.
 NSaved= 1 IEnMin= 1 EnMin= -116.139943488146     IErMin= 1 ErrMin= 2.81D-02
 ErrMax= 2.81D-02  0.00D+00 EMaxC= 1.00D-01 BMatC= 6.33D-01 BMatP= 6.33D-01
 IDIUse=3 WtCom= 7.19D-01 WtEn= 2.81D-01
 Coeff-Com:  0.100D+01
 Coeff-En:   0.100D+01
 Coeff:      0.100D+01
 Gap=     0.289 Goal=   None    Shift=    0.000
 Gap=     0.284 Goal=   None    Shift=    0.000
 GapD=    0.284 DampG=1.000 DampE=0.500 DampFc=0.5000 IDamp=-1.
 Damping current iteration by 5.00D-01
 RMSDP=1.37D-03 MaxDP=7.57D-02              OVMax= 1.36D-01

 Cycle   2  Pass 0  IDiag  1:
 RMSU=  6.82D-04    CP:  9.85D-01
 CoulSu:  requested number of processors reduced to:  20 ShMem   1 Linda.
 E= -116.189249740764     Delta-E=       -0.049306252618 Rises=F Damp=T
 DIIS: error= 1.32D-02 at cycle   2 NSaved=   2.
 NSaved= 2 IEnMin= 2 EnMin= -116.189249740764     IErMin= 2 ErrMin= 1.32D-02
 ErrMax= 1.32D-02  0.00D+00 EMaxC= 1.00D-01 BMatC= 7.32D-02 BMatP= 6.33D-01
 IDIUse=3 WtCom= 8.68D-01 WtEn= 1.32D-01
 Coeff-Com: -0.138D+00 0.114D+01
 Coeff-En:   0.000D+00 0.100D+01
 Coeff:     -0.120D+00 0.112D+01
 Gap=     0.391 Goal=   None    Shift=    0.000
 Gap=     0.295 Goal=   None    Shift=    0.000
 RMSDP=5.08D-04 MaxDP=4.74D-02 DE=-4.93D-02 OVMax= 7.07D-02

 Cycle   3  Pass 0  IDiag  1:
 RMSU=  5.05D-04    CP:  9.87D-01  9.27D-01
 CoulSu:  requested number of processors reduced to:  20 ShMem   1 Linda.
 E= -116.234568105945     Delta-E=       -0.045318365180 Rises=F Damp=F
 DIIS: error= 4.09D-03 at cycle   3 NSaved=   3.
 NSaved= 3 IEnMin= 3 EnMin= -116.234568105945     IErMin= 3 ErrMin= 4.09D-03
 ErrMax= 4.09D-03  0.00D+00 EMaxC= 1.00D-01 BMatC= 1.46D-02 BMatP= 7.32D-02
 IDIUse=3 WtCom= 9.59D-01 WtEn= 4.09D-02
 Coeff-Com: -0.107D+00 0.335D+00 0.772D+00
 Coeff-En:   0.000D+00 0.000D+00 0.100D+01
 Coeff:     -0.103D+00 0.321D+00 0.782D+00
 Gap=     0.388 Goal=   None    Shift=    0.000
 Gap=     0.263 Goal=   None    Shift=    0.000
 RMSDP=1.65D-04 MaxDP=7.78D-03 DE=-4.53D-02 OVMax= 4.53D-02

 Cycle   4  Pass 0  IDiag  1:
 RMSU=  1.47D-04    CP:  9.87D-01  1.04D+00  9.97D-01
 CoulSu:  requested number of processors reduced to:  20 ShMem   1 Linda.
 E= -116.236022782209     Delta-E=       -0.001454676264 Rises=F Damp=F
 DIIS: error= 3.22D-03 at cycle   4 NSaved=   4.
 NSaved= 4 IEnMin= 4 EnMin= -116.236022782209     IErMin= 4 ErrMin= 3.22D-03
 ErrMax= 3.22D-03  0.00D+00 EMaxC= 1.00D-01 BMatC= 6.73D-03 BMatP= 1.46D-02
 IDIUse=3 WtCom= 9.68D-01 WtEn= 3.22D-02
 Coeff-Com: -0.399D-01 0.752D-01 0.447D+00 0.518D+00
 Coeff-En:   0.000D+00 0.000D+00 0.319D+00 0.681D+00
 Coeff:     -0.386D-01 0.728D-01 0.443D+00 0.523D+00
 Gap=     0.385 Goal=   None    Shift=    0.000
 Gap=     0.277 Goal=   None    Shift=    0.000
 RMSDP=7.43D-05 MaxDP=4.33D-03 DE=-1.45D-03 OVMax= 1.51D-02

 Cycle   5  Pass 0  IDiag  1:
 RMSU=  3.26D-05    CP:  9.86D-01  1.01D+00  1.02D+00  5.75D-01
 CoulSu:  requested number of processors reduced to:  20 ShMem   1 Linda.
 E= -116.237393297705     Delta-E=       -0.001370515496 Rises=F Damp=F
 DIIS: error= 3.05D-04 at cycle   5 NSaved=   5.
 NSaved= 5 IEnMin= 5 EnMin= -116.237393297705     IErMin= 5 ErrMin= 3.05D-04
 ErrMax= 3.05D-04  0.00D+00 EMaxC= 1.00D-01 BMatC= 6.28D-05 BMatP= 6.73D-03
 IDIUse=3 WtCom= 9.97D-01 WtEn= 3.05D-03
 Coeff-Com:  0.208D-01-0.432D-01-0.183D+00-0.181D+00 0.139D+01
 Coeff-En:   0.000D+00 0.000D+00 0.000D+00 0.000D+00 0.100D+01
 Coeff:      0.207D-01-0.431D-01-0.183D+00-0.181D+00 0.139D+01
 Gap=     0.386 Goal=   None    Shift=    0.000
 Gap=     0.278 Goal=   None    Shift=    0.000
 RMSDP=2.53D-05 MaxDP=1.34D-03 DE=-1.37D-03 OVMax= 6.50D-03

 Cycle   6  Pass 0  IDiag  1:
 RMSU=  1.13D-05    CP:  9.86D-01  9.96D-01  1.03D+00  6.24D-01  1.55D+00
 CoulSu:  requested number of processors reduced to:  20 ShMem   1 Linda.
 E= -116.237439681030     Delta-E=       -0.000046383325 Rises=F Damp=F
 DIIS: error= 1.74D-04 at cycle   6 NSaved=   6.
 NSaved= 6 IEnMin= 6 EnMin= -116.237439681030     IErMin= 6 ErrMin= 1.74D-04
 ErrMax= 1.74D-04  0.00D+00 EMaxC= 1.00D-01 BMatC= 9.62D-06 BMatP= 6.28D-05
 IDIUse=3 WtCom= 9.98D-01 WtEn= 1.74D-03
 Coeff-Com:  0.647D-02-0.126D-01-0.652D-01-0.874D-01 0.243D+00 0.916D+00
 Coeff-En:   0.000D+00 0.000D+00 0.000D+00 0.000D+00 0.000D+00 0.100D+01
 Coeff:      0.646D-02-0.126D-01-0.651D-01-0.872D-01 0.242D+00 0.916D+00
 Gap=     0.386 Goal=   None    Shift=    0.000
 Gap=     0.279 Goal=   None    Shift=    0.000
 RMSDP=6.12D-06 MaxDP=3.31D-04 DE=-4.64D-05 OVMax= 1.50D-03

 Initial convergence to 1.0D-05 achieved.  Increase integral accuracy.
 Cycle   7  Pass 1  IDiag  1:
 CoulSu:  requested number of processors reduced to:  20 ShMem   1 Linda.
 E= -116.237465503865     Delta-E=       -0.000025822836 Rises=F Damp=F
 DIIS: error= 5.72D-05 at cycle   1 NSaved=   1.
 NSaved= 1 IEnMin= 1 EnMin= -116.237465503865     IErMin= 1 ErrMin= 5.72D-05
 ErrMax= 5.72D-05  0.00D+00 EMaxC= 1.00D-01 BMatC= 3.74D-06 BMatP= 3.74D-06
 IDIUse=1 WtCom= 1.00D+00 WtEn= 0.00D+00
 Coeff-Com:  0.100D+01
 Coeff:      0.100D+01
 Gap=     0.386 Goal=   None    Shift=    0.000
 Gap=     0.279 Goal=   None    Shift=    0.000
 RMSDP=6.12D-06 MaxDP=3.31D-04 DE=-2.58D-05 OVMax= 4.55D-04

 Cycle   8  Pass 1  IDiag  1:
 RMSU=  5.53D-06    CP:  1.00D+00
 CoulSu:  requested number of processors reduced to:  20 ShMem   1 Linda.
 E= -116.237466184696     Delta-E=       -0.000000680831 Rises=F Damp=F
 DIIS: error= 5.32D-05 at cycle   2 NSaved=   2.
 NSaved= 2 IEnMin= 2 EnMin= -116.237466184696     IErMin= 2 ErrMin= 5.32D-05
 ErrMax= 5.32D-05  0.00D+00 EMaxC= 1.00D-01 BMatC= 6.35D-07 BMatP= 3.74D-06
 IDIUse=1 WtCom= 1.00D+00 WtEn= 0.00D+00
 Coeff-Com:  0.158D+00 0.842D+00
 Coeff:      0.158D+00 0.842D+00
 Gap=     0.386 Goal=   None    Shift=    0.000
 Gap=     0.279 Goal=   None    Shift=    0.000
 RMSDP=1.51D-06 MaxDP=8.04D-05 DE=-6.81D-07 OVMax= 6.03D-04

 Cycle   9  Pass 1  IDiag  1:
 RMSU=  1.49D-06    CP:  1.00D+00  1.03D+00
 CoulSu:  requested number of processors reduced to:  20 ShMem   1 Linda.
 E= -116.237466329219     Delta-E=       -0.000000144523 Rises=F Damp=F
 DIIS: error= 3.75D-05 at cycle   3 NSaved=   3.
 NSaved= 3 IEnMin= 3 EnMin= -116.237466329219     IErMin= 3 ErrMin= 3.75D-05
 ErrMax= 3.75D-05  0.00D+00 EMaxC= 1.00D-01 BMatC= 6.92D-07 BMatP= 6.35D-07
 IDIUse=1 WtCom= 1.00D+00 WtEn= 0.00D+00
 Coeff-Com: -0.635D-01 0.522D+00 0.542D+00
 Coeff:     -0.635D-01 0.522D+00 0.542D+00
 Gap=     0.386 Goal=   None    Shift=    0.000
 Gap=     0.279 Goal=   None    Shift=    0.000
 RMSDP=8.48D-07 MaxDP=3.74D-05 DE=-1.45D-07 OVMax= 1.50D-04

 Cycle  10  Pass 1  IDiag  1:
 RMSU=  7.43D-07    CP:  1.00D+00  1.08D+00  8.13D-01
 CoulSu:  requested number of processors reduced to:  20 ShMem   1 Linda.
 E= -116.237466483155     Delta-E=       -0.000000153936 Rises=F Damp=F
 DIIS: error= 8.72D-06 at cycle   4 NSaved=   4.
 NSaved= 4 IEnMin= 4 EnMin= -116.237466483155     IErMin= 4 ErrMin= 8.72D-06
 ErrMax= 8.72D-06  0.00D+00 EMaxC= 1.00D-01 BMatC= 3.41D-08 BMatP= 6.35D-07
 IDIUse=1 WtCom= 1.00D+00 WtEn= 0.00D+00
 Coeff-Com: -0.212D-01-0.174D+00-0.188D+00 0.138D+01
 Coeff:     -0.212D-01-0.174D+00-0.188D+00 0.138D+01
 Gap=     0.386 Goal=   None    Shift=    0.000
 Gap=     0.279 Goal=   None    Shift=    0.000
 RMSDP=7.03D-07 MaxDP=3.01D-05 DE=-1.54D-07 OVMax= 2.38D-04

 Cycle  11  Pass 1  IDiag  1:
 RMSU=  2.18D-07    CP:  1.00D+00  1.12D+00  1.03D+00  1.73D+00
 CoulSu:  requested number of processors reduced to:  20 ShMem   1 Linda.
 E= -116.237466519362     Delta-E=       -0.000000036206 Rises=F Damp=F
 DIIS: error= 4.91D-06 at cycle   5 NSaved=   5.
 NSaved= 5 IEnMin= 5 EnMin= -116.237466519362     IErMin= 5 ErrMin= 4.91D-06
 ErrMax= 4.91D-06  0.00D+00 EMaxC= 1.00D-01 BMatC= 9.74D-09 BMatP= 3.41D-08
 IDIUse=1 WtCom= 1.00D+00 WtEn= 0.00D+00
 Coeff-Com:  0.991D-02-0.177D+00-0.217D+00 0.466D+00 0.918D+00
 Coeff:      0.991D-02-0.177D+00-0.217D+00 0.466D+00 0.918D+00
 Gap=     0.386 Goal=   None    Shift=    0.000
 Gap=     0.279 Goal=   None    Shift=    0.000
 RMSDP=3.08D-07 MaxDP=1.01D-05 DE=-3.62D-08 OVMax= 1.09D-04

 Cycle  12  Pass 1  IDiag  1:
 RMSU=  8.19D-08    CP:  1.00D+00  1.13D+00  1.10D+00  2.09D+00  1.06D+00
 CoulSu:  requested number of processors reduced to:  20 ShMem   1 Linda.
 E= -116.237466525114     Delta-E=       -0.000000005752 Rises=F Damp=F
 DIIS: error= 1.08D-06 at cycle   6 NSaved=   6.
 NSaved= 6 IEnMin= 6 EnMin= -116.237466525114     IErMin= 6 ErrMin= 1.08D-06
 ErrMax= 1.08D-06  0.00D+00 EMaxC= 1.00D-01 BMatC= 4.82D-10 BMatP= 9.74D-09
 IDIUse=1 WtCom= 1.00D+00 WtEn= 0.00D+00
 Coeff-Com:  0.424D-02-0.396D-01-0.543D-01 0.508D-01 0.241D+00 0.798D+00
 Coeff:      0.424D-02-0.396D-01-0.543D-01 0.508D-01 0.241D+00 0.798D+00
 Gap=     0.386 Goal=   None    Shift=    0.000
 Gap=     0.279 Goal=   None    Shift=    0.000
 RMSDP=5.17D-08 MaxDP=2.09D-06 DE=-5.75D-09 OVMax= 1.44D-05

 Cycle  13  Pass 1  IDiag  1:
 RMSU=  3.15D-08    CP:  1.00D+00  1.14D+00  1.11D+00  2.13D+00  1.15D+00
                    CP:  9.98D-01
 CoulSu:  requested number of processors reduced to:  20 ShMem   1 Linda.
 E= -116.237466525353     Delta-E=       -0.000000000239 Rises=F Damp=F
 DIIS: error= 3.21D-07 at cycle   7 NSaved=   7.
 NSaved= 7 IEnMin= 7 EnMin= -116.237466525353     IErMin= 7 ErrMin= 3.21D-07
 ErrMax= 3.21D-07  0.00D+00 EMaxC= 1.00D-01 BMatC= 6.11D-11 BMatP= 4.82D-10
 IDIUse=1 WtCom= 1.00D+00 WtEn= 0.00D+00
 Coeff-Com: -0.129D-02 0.290D-01 0.345D-01-0.703D-01-0.154D+00 0.222D-01
 Coeff-Com:  0.114D+01
 Coeff:     -0.129D-02 0.290D-01 0.345D-01-0.703D-01-0.154D+00 0.222D-01
 Coeff:      0.114D+01
 Gap=     0.386 Goal=   None    Shift=    0.000
 Gap=     0.279 Goal=   None    Shift=    0.000
 RMSDP=2.46D-08 MaxDP=1.26D-06 DE=-2.39D-10 OVMax= 6.25D-06

 Cycle  14  Pass 1  IDiag  1:
 RMSU=  1.31D-08    CP:  1.00D+00  1.13D+00  1.11D+00  2.14D+00  1.19D+00
                    CP:  1.18D+00  1.35D+00
 CoulSu:  requested number of processors reduced to:  20 ShMem   1 Linda.
 E= -116.237466525416     Delta-E=       -0.000000000063 Rises=F Damp=F
 DIIS: error= 1.75D-07 at cycle   8 NSaved=   8.
 NSaved= 8 IEnMin= 8 EnMin= -116.237466525416     IErMin= 8 ErrMin= 1.75D-07
 ErrMax= 1.75D-07  0.00D+00 EMaxC= 1.00D-01 BMatC= 9.47D-12 BMatP= 6.11D-11
 IDIUse=1 WtCom= 1.00D+00 WtEn= 0.00D+00
 Coeff-Com: -0.229D-03-0.334D-02-0.323D-02 0.173D-01 0.392D-02-0.137D+00
 Coeff-Com: -0.260D+00 0.138D+01
 Coeff:     -0.229D-03-0.334D-02-0.323D-02 0.173D-01 0.392D-02-0.137D+00
 Coeff:     -0.260D+00 0.138D+01
 Gap=     0.386 Goal=   None    Shift=    0.000
 Gap=     0.279 Goal=   None    Shift=    0.000
 RMSDP=1.43D-08 MaxDP=6.75D-07 DE=-6.32D-11 OVMax= 5.65D-06

 Cycle  15  Pass 1  IDiag  1:
 RMSU=  5.13D-09    CP:  1.00D+00  1.13D+00  1.11D+00  2.14D+00  1.21D+00
                    CP:  1.24D+00  1.63D+00  1.56D+00
 CoulSu:  requested number of processors reduced to:  20 ShMem   1 Linda.
 E= -116.237466525430     Delta-E=       -0.000000000014 Rises=F Damp=F
 DIIS: error= 1.12D-07 at cycle   9 NSaved=   9.
 NSaved= 9 IEnMin= 9 EnMin= -116.237466525430     IErMin= 9 ErrMin= 1.12D-07
 ErrMax= 1.12D-07  0.00D+00 EMaxC= 1.00D-01 BMatC= 1.76D-12 BMatP= 9.47D-12
 IDIUse=1 WtCom= 1.00D+00 WtEn= 0.00D+00
 Coeff-Com:  0.222D-03-0.945D-03-0.136D-02-0.178D-02 0.108D-01 0.611D-01
 Coeff-Com:  0.554D-01-0.744D+00 0.162D+01
 Coeff:      0.222D-03-0.945D-03-0.136D-02-0.178D-02 0.108D-01 0.611D-01
 Coeff:      0.554D-01-0.744D+00 0.162D+01
 Gap=     0.386 Goal=   None    Shift=    0.000
 Gap=     0.279 Goal=   None    Shift=    0.000
 RMSDP=7.67D-09 MaxDP=5.02D-07 DE=-1.44D-11 OVMax= 4.22D-06

 SCF Done:  E(UM062X) =  -116.237466525     A.U. after   15 cycles
            NFock= 15  Conv=0.77D-08     -V/T= 2.0038
 <Sx>= 0.0000 <Sy>= 0.0000 <Sz>= 0.5000 <S**2>= 0.7597 S= 0.5048
 <L.S>= 0.000000000000E+00
 KE= 1.157986058512D+02 PE=-3.469129563017D+02 EE= 7.775810358478D+01
 Annihilation of the first spin contaminant:
 S**2 before annihilation     0.7597,   after     0.7500
 Leave Link  502 at Fri Apr 16 22:56:53 2021, MaxMem=   104857600 cpu:            1591.7 elap:              47.0
 (Enter /s/ls4/users/knvvv/bin/g16sse/l601.exe)
 Copying SCF densities to generalized density rwf, IOpCl= 1 IROHF=0.

 **********************************************************************

            Population analysis using the SCF density.

 **********************************************************************

 Orbital symmetries:
 Alpha Orbitals:
       Occupied  (A) (A) (A) (A) (A) (A) (A) (A) (A) (A)
       Virtual   (A) (A) (A) (A) (A) (A) (A) (A) (A) (A) (A) (A)
                 (A) (A) (A) (A) (A) (A) (A) (A) (A) (A) (A) (A)
                 (A) (A) (A) (A) (A) (A) (A) (A) (A) (A) (A) (A)
                 (A) (A) (A) (A) (A) (A) (A) (A) (A) (A) (A) (A)
                 (A) (A) (A) (A) (A) (A) (A) (A) (A) (A) (A) (A)
                 (A) (A) (A) (A) (A) (A) (A) (A) (A) (A) (A) (A)
                 (A) (A) (A) (A) (A) (A) (A) (A) (A) (A) (A) (A)
                 (A) (A) (A) (A) (A) (A) (A) (A) (A) (A) (A) (A)
                 (A) (A) (A) (A) (A) (A) (A) (A) (A) (A) (A) (A)
                 (A) (A) (A) (A) (A) (A) (A) (A) (A) (A) (A) (A)
                 (A) (A) (A) (A) (A) (A) (A) (A) (A) (A) (A) (A)
                 (A) (A) (A) (A) (A) (A) (A) (A) (A) (A) (A) (A)
                 (A) (A) (A) (A) (A) (A) (A) (A) (A) (A) (A) (A)
                 (A) (A) (A) (A) (A) (A) (A) (A) (A) (A) (A) (A)
                 (A) (A) (A) (A) (A) (A) (A) (A) (A) (A) (A) (A)
                 (A) (A) (A) (A) (A) (A) (A) (A) (A) (A) (A) (A)
                 (A) (A) (A) (A) (A) (A) (A) (A) (A) (A) (A) (A)
                 (A) (A) (A) (A) (A) (A) (A) (A) (A) (A) (A) (A)
                 (A) (A) (A) (A) (A) (A) (A) (A) (A) (A) (A) (A)
                 (A) (A) (A) (A) (A) (A) (A) (A) (A) (A) (A) (A)
                 (A) (A) (A) (A) (A) (A) (A) (A) (A) (A) (A) (A)
                 (A) (A)
 Beta  Orbitals:
       Occupied  (A) (A) (A) (A) (A) (A) (A) (A) (A)
       Virtual   (A) (A) (A) (A) (A) (A) (A) (A) (A) (A) (A) (A)
                 (A) (A) (A) (A) (A) (A) (A) (A) (A) (A) (A) (A)
                 (A) (A) (A) (A) (A) (A) (A) (A) (A) (A) (A) (A)
                 (A) (A) (A) (A) (A) (A) (A) (A) (A) (A) (A) (A)
                 (A) (A) (A) (A) (A) (A) (A) (A) (A) (A) (A) (A)
                 (A) (A) (A) (A) (A) (A) (A) (A) (A) (A) (A) (A)
                 (A) (A) (A) (A) (A) (A) (A) (A) (A) (A) (A) (A)
                 (A) (A) (A) (A) (A) (A) (A) (A) (A) (A) (A) (A)
                 (A) (A) (A) (A) (A) (A) (A) (A) (A) (A) (A) (A)
                 (A) (A) (A) (A) (A) (A) (A) (A) (A) (A) (A) (A)
                 (A) (A) (A) (A) (A) (A) (A) (A) (A) (A) (A) (A)
                 (A) (A) (A) (A) (A) (A) (A) (A) (A) (A) (A) (A)
                 (A) (A) (A) (A) (A) (A) (A) (A) (A) (A) (A) (A)
                 (A) (A) (A) (A) (A) (A) (A) (A) (A) (A) (A) (A)
                 (A) (A) (A) (A) (A) (A) (A) (A) (A) (A) (A) (A)
                 (A) (A) (A) (A) (A) (A) (A) (A) (A) (A) (A) (A)
                 (A) (A) (A) (A) (A) (A) (A) (A) (A) (A) (A) (A)
                 (A) (A) (A) (A) (A) (A) (A) (A) (A) (A) (A) (A)
                 (A) (A) (A) (A) (A) (A) (A) (A) (A) (A) (A) (A)
                 (A) (A) (A) (A) (A) (A) (A) (A) (A) (A) (A) (A)
                 (A) (A) (A) (A) (A) (A) (A) (A) (A) (A) (A) (A)
                 (A) (A) (A)
 The electronic state is 2-A.
 Alpha  occ. eigenvalues --  -19.64939 -10.55694  -1.11936  -0.81376  -0.57530
 Alpha  occ. eigenvalues --   -0.51501  -0.49316  -0.49025  -0.40606  -0.35040
 Alpha virt. eigenvalues --    0.03537   0.07411   0.10904   0.11049   0.14646
 Alpha virt. eigenvalues --    0.14823   0.15051   0.20406   0.30321   0.31345
 Alpha virt. eigenvalues --    0.33972   0.34417   0.34898   0.35805   0.38802
 Alpha virt. eigenvalues --    0.39797   0.42530   0.44413   0.50559   0.56535
 Alpha virt. eigenvalues --    0.61564   0.64689   0.65038   0.66645   0.68785
 Alpha virt. eigenvalues --    0.71261   0.72615   0.76004   0.76775   0.80859
 Alpha virt. eigenvalues --    0.86853   0.93936   0.97031   0.99852   1.02593
 Alpha virt. eigenvalues --    1.02838   1.03295   1.04108   1.06909   1.11153
 Alpha virt. eigenvalues --    1.12075   1.14203   1.26773   1.32905   1.36107
 Alpha virt. eigenvalues --    1.37071   1.41057   1.43250   1.44398   1.60217
 Alpha virt. eigenvalues --    1.61455   1.68060   1.72262   1.76885   1.80815
 Alpha virt. eigenvalues --    1.81333   1.87106   1.87702   1.91479   1.94280
 Alpha virt. eigenvalues --    1.96841   1.99571   2.00837   2.03217   2.04363
 Alpha virt. eigenvalues --    2.08766   2.12512   2.13738   2.16915   2.20888
 Alpha virt. eigenvalues --    2.27098   2.31376   2.33801   2.40656   2.44459
 Alpha virt. eigenvalues --    2.47031   2.48871   2.52343   2.53096   2.54550
 Alpha virt. eigenvalues --    2.62102   2.62685   2.64434   2.68617   2.72154
 Alpha virt. eigenvalues --    2.76452   2.79247   2.81722   2.82799   2.87551
 Alpha virt. eigenvalues --    2.91798   2.93238   2.95347   3.00464   3.06085
 Alpha virt. eigenvalues --    3.07598   3.12768   3.16653   3.18362   3.28035
 Alpha virt. eigenvalues --    3.34414   3.38703   3.50819   3.55121   3.56181
 Alpha virt. eigenvalues --    3.68804   3.73761   3.76777   3.77759   3.86056
 Alpha virt. eigenvalues --    3.94062   4.00439   4.02632   4.06042   4.14474
 Alpha virt. eigenvalues --    4.16497   4.24503   4.27819   4.38943   4.45957
 Alpha virt. eigenvalues --    4.53430   4.57033   4.96793   5.09156   5.12601
 Alpha virt. eigenvalues --    5.21654   5.25288   5.35563   5.42043   5.45849
 Alpha virt. eigenvalues --    5.47779   5.54471   5.60150   5.62023   5.67340
 Alpha virt. eigenvalues --    5.71114   5.72720   5.73980   5.76505   5.82600
 Alpha virt. eigenvalues --    5.86041   5.89635   5.90586   5.94808   5.97551
 Alpha virt. eigenvalues --    6.02064   6.05548   6.14597   6.19872   6.21703
 Alpha virt. eigenvalues --    6.25020   6.37831   6.41524   6.51019   6.51206
 Alpha virt. eigenvalues --    6.52523   6.57544   6.66056   6.69550   6.83171
 Alpha virt. eigenvalues --    6.85943   6.93382   7.06077   7.06302   7.06762
 Alpha virt. eigenvalues --    7.07958   7.09441   7.11403   7.11959   7.13151
 Alpha virt. eigenvalues --    7.23910   7.30048   7.33288   7.36313   7.37660
 Alpha virt. eigenvalues --    7.38798   7.45433   7.49419   7.50690   7.51422
 Alpha virt. eigenvalues --    7.53973   7.56049   7.61851   7.67156   7.71920
 Alpha virt. eigenvalues --    7.76312   7.92599   7.95936   8.04982   8.06307
 Alpha virt. eigenvalues --    8.07034   8.10511   8.11376   8.14155   8.14971
 Alpha virt. eigenvalues --    8.17826   8.18730   8.19077   8.23617   8.25095
 Alpha virt. eigenvalues --    8.28118   8.34026   8.39182   8.42668   8.46997
 Alpha virt. eigenvalues --    8.55469   8.60422   8.67060   8.76424   8.94481
 Alpha virt. eigenvalues --    8.96013   9.03711   9.18167   9.19858   9.26054
 Alpha virt. eigenvalues --    9.37821   9.39508   9.65317   9.66898   9.70189
 Alpha virt. eigenvalues --    9.77971   9.85699   9.87026   9.89639  10.09107
 Alpha virt. eigenvalues --   10.12474  10.22005  10.25071  10.48915  10.64630
 Alpha virt. eigenvalues --   10.68590  10.94346  11.08662  11.21198  11.24425
 Alpha virt. eigenvalues --   11.27791  11.30926  11.45943  11.49758  11.64219
 Alpha virt. eigenvalues --   11.66355  12.12206  12.24087  12.45476  13.05094
 Alpha virt. eigenvalues --   13.44998  13.61096  13.90072  14.12660  16.31147
 Alpha virt. eigenvalues --   29.00535  48.05230 146.53987 251.11914
  Beta  occ. eigenvalues --  -19.63718 -10.55239  -1.07498  -0.79114  -0.53354
  Beta  occ. eigenvalues --   -0.48496  -0.48321  -0.44823  -0.38065
  Beta virt. eigenvalues --   -0.10185   0.03742   0.07588   0.10975   0.11104
  Beta virt. eigenvalues --    0.13438   0.14922   0.15171   0.20811   0.29694
  Beta virt. eigenvalues --    0.31784   0.34413   0.35089   0.35568   0.36201
  Beta virt. eigenvalues --    0.38788   0.41148   0.43188   0.44786   0.50939
  Beta virt. eigenvalues --    0.56576   0.61802   0.64943   0.65309   0.67697
  Beta virt. eigenvalues --    0.68656   0.71092   0.73376   0.75708   0.76618
  Beta virt. eigenvalues --    0.80270   0.86798   0.94030   0.97146   1.00068
  Beta virt. eigenvalues --    1.01349   1.02497   1.02706   1.03712   1.07431
  Beta virt. eigenvalues --    1.11175   1.12025   1.14148   1.27589   1.33249
  Beta virt. eigenvalues --    1.36721   1.37731   1.41264   1.43792   1.45374
  Beta virt. eigenvalues --    1.60885   1.61792   1.70321   1.72725   1.77526
  Beta virt. eigenvalues --    1.80990   1.83099   1.87657   1.88279   1.91878
  Beta virt. eigenvalues --    1.94413   1.97231   1.99799   2.01034   2.03632
  Beta virt. eigenvalues --    2.04951   2.08857   2.12523   2.13984   2.16863
  Beta virt. eigenvalues --    2.20921   2.26991   2.31267   2.33487   2.40382
  Beta virt. eigenvalues --    2.43951   2.46822   2.48628   2.52584   2.53337
  Beta virt. eigenvalues --    2.54727   2.62533   2.63271   2.64441   2.68464
  Beta virt. eigenvalues --    2.71946   2.76554   2.79070   2.82105   2.82948
  Beta virt. eigenvalues --    2.87250   2.91114   2.92797   2.95272   3.01157
  Beta virt. eigenvalues --    3.06319   3.07646   3.13714   3.17666   3.19416
  Beta virt. eigenvalues --    3.27753   3.34169   3.39549   3.52091   3.55752
  Beta virt. eigenvalues --    3.56855   3.69344   3.73954   3.78263   3.79105
  Beta virt. eigenvalues --    3.86632   3.95284   4.02061   4.04458   4.07339
  Beta virt. eigenvalues --    4.16887   4.18104   4.26174   4.29107   4.39949
  Beta virt. eigenvalues --    4.46735   4.54704   4.59385   4.98385   5.11727
  Beta virt. eigenvalues --    5.15480   5.23470   5.28182   5.37277   5.44089
  Beta virt. eigenvalues --    5.48670   5.49770   5.56217   5.61858   5.63319
  Beta virt. eigenvalues --    5.67272   5.71365   5.74016   5.74899   5.77081
  Beta virt. eigenvalues --    5.84012   5.86241   5.91074   5.91529   5.95232
  Beta virt. eigenvalues --    6.00674   6.04900   6.09264   6.15034   6.21949
  Beta virt. eigenvalues --    6.24171   6.27450   6.40089   6.43015   6.52651
  Beta virt. eigenvalues --    6.52961   6.55103   6.60937   6.69171   6.70821
  Beta virt. eigenvalues --    6.85431   6.86556   6.92983   7.06470   7.06957
  Beta virt. eigenvalues --    7.07745   7.08378   7.10667   7.11145   7.11694
  Beta virt. eigenvalues --    7.14091   7.23735   7.26467   7.30641   7.31517
  Beta virt. eigenvalues --    7.36847   7.39119   7.43600   7.46901   7.52023
  Beta virt. eigenvalues --    7.52488   7.55116   7.56361   7.62107   7.65778
  Beta virt. eigenvalues --    7.67291   7.76640   7.90078   7.95231   8.02718
  Beta virt. eigenvalues --    8.04730   8.06989   8.07632   8.11842   8.13367
  Beta virt. eigenvalues --    8.15005   8.16316   8.17928   8.19258   8.23823
  Beta virt. eigenvalues --    8.25607   8.28352   8.33074   8.38786   8.42802
  Beta virt. eigenvalues --    8.47933   8.55749   8.62004   8.68392   8.77410
  Beta virt. eigenvalues --    8.94608   8.96806   8.98310   9.14099   9.18554
  Beta virt. eigenvalues --    9.29422   9.39104   9.40939   9.67183   9.68642
  Beta virt. eigenvalues --    9.71419   9.79930   9.87178   9.89589   9.89949
  Beta virt. eigenvalues --   10.13794  10.17507  10.24814  10.26063  10.53623
  Beta virt. eigenvalues --   10.67567  10.69218  10.94112  11.17555  11.27797
  Beta virt. eigenvalues --   11.32387  11.34519  11.37006  11.51090  11.57790
  Beta virt. eigenvalues --   11.72403  11.73044  12.20089  12.34246  12.52057
  Beta virt. eigenvalues --   13.15880  13.53603  13.64106  14.01046  14.21166
  Beta virt. eigenvalues --   16.33670  29.12949  48.14537 146.56460 251.11200
          Condensed to atoms (all electrons):
               1          2          3          4          5          6
     1  C    5.486595  -0.068741   0.260530   0.356364   0.346636   0.357365
     2  O   -0.068741   8.110710   0.160483  -0.000899  -0.001457   0.000452
     3  H    0.260530   0.160483   0.362534  -0.011661  -0.007511  -0.012987
     4  H    0.356364  -0.000899  -0.011661   0.477919  -0.027511  -0.027443
     5  H    0.346636  -0.001457  -0.007511  -0.027511   0.497349  -0.024953
     6  H    0.357365   0.000452  -0.012987  -0.027443  -0.024953   0.478992
     7  H    0.028309   0.282305  -0.038200  -0.000124  -0.000687   0.000307
               7
     1  C    0.028309
     2  O    0.282305
     3  H   -0.038200
     4  H   -0.000124
     5  H   -0.000687
     6  H    0.000307
     7  H    0.444744
          Atomic-Atomic Spin Densities.
               1          2          3          4          5          6
     1  C    0.488262  -0.102568   0.079814  -0.009472  -0.004780  -0.011476
     2  O   -0.102568   0.697795  -0.036966   0.004805   0.003852   0.005157
     3  H    0.079814  -0.036966  -0.008058  -0.003349  -0.004235  -0.003401
     4  H   -0.009472   0.004805  -0.003349  -0.021510   0.008555   0.010618
     5  H   -0.004780   0.003852  -0.004235   0.008555  -0.027065   0.008706
     6  H   -0.011476   0.005157  -0.003401   0.010618   0.008706  -0.018781
     7  H    0.000366   0.014044   0.004799  -0.000248   0.000027  -0.000324
               7
     1  C    0.000366
     2  O    0.014044
     3  H    0.004799
     4  H   -0.000248
     5  H    0.000027
     6  H   -0.000324
     7  H   -0.038489
 Mulliken charges and spin densities:
               1          2
     1  C   -0.767058   0.440146
     2  O   -0.482855   0.586118
     3  H    0.286812   0.028605
     4  H    0.233354  -0.010602
     5  H    0.218133  -0.014940
     6  H    0.228268  -0.009501
     7  H    0.283346  -0.019826
 Sum of Mulliken charges =  -0.00000   1.00000
 Mulliken charges and spin densities with hydrogens summed into heavy atoms:
               1          2
     1  C    0.199508   0.433707
     2  O   -0.199508   0.566293
 Electronic spatial extent (au):  <R**2>=            156.9833
 Charge=              0.0000 electrons
 Dipole moment (field-independent basis, Debye):
    X=             -1.4821    Y=              1.4699    Z=             -0.0013  Tot=              2.0874
 Quadrupole moment (field-independent basis, Debye-Ang):
   XX=            -14.8113   YY=            -12.8870   ZZ=            -14.8952
   XY=              2.5529   XZ=              0.0004   YZ=              0.0081
 Traceless Quadrupole moment (field-independent basis, Debye-Ang):
   XX=             -0.6135   YY=              1.3108   ZZ=             -0.6973
   XY=              2.5529   XZ=              0.0004   YZ=              0.0081
 Octapole moment (field-independent basis, Debye-Ang**2):
  XXX=              4.9352  YYY=              2.1672  ZZZ=              0.5756  XYY=              2.7019
  XXY=              3.4742  XXZ=             -0.0091  XZZ=             -0.2937  YZZ=             -0.3787
  YYZ=             -0.5720  XYZ=             -0.0524
 Hexadecapole moment (field-independent basis, Debye-Ang**3):
 XXXX=           -157.3851 YYYY=            -21.2639 ZZZZ=            -21.3301 XXXY=              6.6813
 XXXZ=             -0.0026 YYYX=              1.9706 YYYZ=             -0.0491 ZZZX=             -0.9496
 ZZZY=              0.0408 XXYY=            -26.0648 XXZZ=            -29.3883 YYZZ=             -7.3954
 XXYZ=              0.1453 YYXZ=              0.9428 ZZXY=              1.3252
 N-N= 3.711878034024D+01 E-N=-3.469129559060D+02  KE= 1.157986058512D+02
                          Isotropic Fermi Contact Couplings
        Atom                 a.u.       MegaHertz       Gauss      10(-4) cm-1
     1  C(13)              0.17344     194.97615      69.57234      65.03704
     2  O(17)              0.11284     -68.40358     -24.40810     -22.81698
     3  H(1)              -0.02708    -121.02750     -43.18562     -40.37043
     4  H(1)              -0.00345     -15.43381      -5.50717      -5.14816
     5  H(1)              -0.00468     -20.93659      -7.47070      -6.98370
     6  H(1)              -0.00300     -13.40783      -4.78425      -4.47237
     7  H(1)              -0.01038     -46.38692     -16.55201     -15.47301
 PrsmSu:  requested number of processors reduced to:  21 ShMem   1 Linda.
 --------------------------------------------------------
       Center         ----  Spin Dipole Couplings  ----
                      3XX-RR        3YY-RR        3ZZ-RR
 --------------------------------------------------------
     1   Atom        0.584250     -0.290097     -0.294153
     2   Atom        2.562354     -1.268934     -1.293420
     3   Atom        0.255666     -0.126914     -0.128752
     4   Atom        0.000695     -0.033070      0.032374
     5   Atom       -0.001070      0.032931     -0.031860
     6   Atom        0.001334     -0.001576      0.000242
     7   Atom       -0.022251      0.111876     -0.089625
 --------------------------------------------------------
                        XY            XZ            YZ
 --------------------------------------------------------
     1   Atom       -0.052544      0.002764     -0.000470
     2   Atom       -0.376722     -0.004773      0.000598
     3   Atom       -0.014616     -0.000207     -0.000105
     4   Atom        0.001753     -0.015746     -0.016592
     5   Atom       -0.013545      0.003219     -0.018915
     6   Atom        0.010202      0.012676      0.036479
     7   Atom        0.025110     -0.000103     -0.000147
 --------------------------------------------------------


 ---------------------------------------------------------------------------------
              Anisotropic Spin Dipole Couplings in Principal Axis System
 ---------------------------------------------------------------------------------

       Atom             a.u.   MegaHertz   Gauss  10(-4) cm-1        Axes

              Baa    -0.2943   -39.486   -14.090   -13.171  0.0142  0.2880  0.9575
     1 C(13)  Bbb    -0.2932   -39.338   -14.037   -13.122  0.0581  0.9558 -0.2883
              Bcc     0.5874    78.824    28.126    26.293  0.9982 -0.0598  0.0032
 
              Baa    -1.3056    94.474    33.711    31.513  0.0969  0.9952 -0.0109
     2 O(17)  Bbb    -1.2934    93.591    33.396    31.219  0.0023  0.0107  0.9999
              Bcc     2.5991  -188.066   -67.106   -62.732  0.9953 -0.0969 -0.0012
 
              Baa    -0.1288   -68.701   -24.514   -22.916  0.0038  0.0868  0.9962
     3 H(1)   Bbb    -0.1275   -68.008   -24.267   -22.685  0.0379  0.9955 -0.0869
              Bcc     0.2562   136.709    48.781    45.601  0.9993 -0.0381 -0.0005
 
              Baa    -0.0371   -19.820    -7.072    -6.611  0.0566  0.9681  0.2439
     4 H(1)   Bbb    -0.0051    -2.744    -0.979    -0.915  0.9336 -0.1379  0.3308
              Bcc     0.0423    22.564     8.051     7.527 -0.3539 -0.2090  0.9116
 
              Baa    -0.0370   -19.733    -7.041    -6.582  0.0129  0.2635  0.9646
     5 H(1)   Bbb    -0.0055    -2.940    -1.049    -0.981  0.9525  0.2903 -0.0920
              Bcc     0.0425    22.673     8.090     7.563 -0.3043  0.9199 -0.2472
 
              Baa    -0.0372   -19.862    -7.087    -6.625  0.0442  0.7083 -0.7045
     6 H(1)   Bbb    -0.0050    -2.676    -0.955    -0.893  0.9286 -0.2892 -0.2324
              Bcc     0.0422    22.538     8.042     7.518  0.3684  0.6440  0.6705
 
              Baa    -0.0896   -47.820   -17.063   -15.951  0.0013  0.0006  1.0000
     7 H(1)   Bbb    -0.0268   -14.298    -5.102    -4.769  0.9840 -0.1782 -0.0012
              Bcc     0.1164    62.118    22.165    20.720  0.1782  0.9840 -0.0008
 

 ---------------------------------------------------------------------------------

 PrsmSu:  requested number of processors reduced to:  21 ShMem   1 Linda.
 No NMR shielding tensors so no spin-rotation constants.
 Leave Link  601 at Fri Apr 16 22:56:58 2021, MaxMem=   104857600 cpu:             188.9 elap:               4.2
 (Enter /s/ls4/users/knvvv/bin/g16sse/l801.exe)
 DoSCS=F DFT=T ScalE2(SS,OS)=  1.000000  1.000000
 Range of M.O.s used for correlation:     1   264
 NBasis=   264 NAE=    10 NBE=     9 NFC=     0 NFV=     0
 NROrb=    264 NOA=    10 NOB=     9 NVA=   254 NVB=   255

 **** Warning!!: The largest alpha MO coefficient is  0.33893381D+02


 **** Warning!!: The largest beta MO coefficient is  0.34479638D+02

 Leave Link  801 at Fri Apr 16 22:56:58 2021, MaxMem=   104857600 cpu:               4.0 elap:               0.1
 (Enter /s/ls4/users/knvvv/bin/g16sse/l914.exe)
 UHF ground state
 Doing stability rather than CIS.
 Two-electron integrals replicated using symmetry.
 MDV=   104857600 DFT=T DoStab=T Mixed=T DoRPA=F DoScal=F NonHer=F
 Making orbital integer symmetry assigments:
 Orbital symmetries:
 Alpha Orbitals:
       Occupied  (A) (A) (A) (A) (A) (A) (A) (A) (A) (A)
       Virtual   (A) (A) (A) (A) (A) (A) (A) (A) (A) (A) (A) (A)
                 (A) (A) (A) (A) (A) (A) (A) (A) (A) (A) (A) (A)
                 (A) (A) (A) (A) (A) (A) (A) (A) (A) (A) (A) (A)
                 (A) (A) (A) (A) (A) (A) (A) (A) (A) (A) (A) (A)
                 (A) (A) (A) (A) (A) (A) (A) (A) (A) (A) (A) (A)
                 (A) (A) (A) (A) (A) (A) (A) (A) (A) (A) (A) (A)
                 (A) (A) (A) (A) (A) (A) (A) (A) (A) (A) (A) (A)
                 (A) (A) (A) (A) (A) (A) (A) (A) (A) (A) (A) (A)
                 (A) (A) (A) (A) (A) (A) (A) (A) (A) (A) (A) (A)
                 (A) (A) (A) (A) (A) (A) (A) (A) (A) (A) (A) (A)
                 (A) (A) (A) (A) (A) (A) (A) (A) (A) (A) (A) (A)
                 (A) (A) (A) (A) (A) (A) (A) (A) (A) (A) (A) (A)
                 (A) (A) (A) (A) (A) (A) (A) (A) (A) (A) (A) (A)
                 (A) (A) (A) (A) (A) (A) (A) (A) (A) (A) (A) (A)
                 (A) (A) (A) (A) (A) (A) (A) (A) (A) (A) (A) (A)
                 (A) (A) (A) (A) (A) (A) (A) (A) (A) (A) (A) (A)
                 (A) (A) (A) (A) (A) (A) (A) (A) (A) (A) (A) (A)
                 (A) (A) (A) (A) (A) (A) (A) (A) (A) (A) (A) (A)
                 (A) (A) (A) (A) (A) (A) (A) (A) (A) (A) (A) (A)
                 (A) (A) (A) (A) (A) (A) (A) (A) (A) (A) (A) (A)
                 (A) (A) (A) (A) (A) (A) (A) (A) (A) (A) (A) (A)
                 (A) (A)
 Beta  Orbitals:
       Occupied  (A) (A) (A) (A) (A) (A) (A) (A) (A)
       Virtual   (A) (A) (A) (A) (A) (A) (A) (A) (A) (A) (A) (A)
                 (A) (A) (A) (A) (A) (A) (A) (A) (A) (A) (A) (A)
                 (A) (A) (A) (A) (A) (A) (A) (A) (A) (A) (A) (A)
                 (A) (A) (A) (A) (A) (A) (A) (A) (A) (A) (A) (A)
                 (A) (A) (A) (A) (A) (A) (A) (A) (A) (A) (A) (A)
                 (A) (A) (A) (A) (A) (A) (A) (A) (A) (A) (A) (A)
                 (A) (A) (A) (A) (A) (A) (A) (A) (A) (A) (A) (A)
                 (A) (A) (A) (A) (A) (A) (A) (A) (A) (A) (A) (A)
                 (A) (A) (A) (A) (A) (A) (A) (A) (A) (A) (A) (A)
                 (A) (A) (A) (A) (A) (A) (A) (A) (A) (A) (A) (A)
                 (A) (A) (A) (A) (A) (A) (A) (A) (A) (A) (A) (A)
                 (A) (A) (A) (A) (A) (A) (A) (A) (A) (A) (A) (A)
                 (A) (A) (A) (A) (A) (A) (A) (A) (A) (A) (A) (A)
                 (A) (A) (A) (A) (A) (A) (A) (A) (A) (A) (A) (A)
                 (A) (A) (A) (A) (A) (A) (A) (A) (A) (A) (A) (A)
                 (A) (A) (A) (A) (A) (A) (A) (A) (A) (A) (A) (A)
                 (A) (A) (A) (A) (A) (A) (A) (A) (A) (A) (A) (A)
                 (A) (A) (A) (A) (A) (A) (A) (A) (A) (A) (A) (A)
                 (A) (A) (A) (A) (A) (A) (A) (A) (A) (A) (A) (A)
                 (A) (A) (A) (A) (A) (A) (A) (A) (A) (A) (A) (A)
                 (A) (A) (A) (A) (A) (A) (A) (A) (A) (A) (A) (A)
                 (A) (A) (A)
    12 initial guesses have been made.
 Convergence on wavefunction:    0.001000000000000
 Davidson Disk Diagonalization:  ConvIn= 1.00D-03 SkipCon=T Conv= 1.00D-03.
 Max sub-space:  2000 roots to seek:    12 dimension of matrix:         4835
 Iteration     1 Dimension    12 NMult     0 NNew     12
 Estimated number of processors is:   18
 CISAX will form     1 AO SS matrices at one time.
 NMat=     1 NSing=     1 JSym2X= 0.
 FoFJK:  IHMeth= 1 ICntrl=       0 DoSepK=F KAlg= 0 I1Cent=           0 FoldK=F
 IRaf= 980000000 NMat=       1 IRICut=       1 DoRegI=T DoRafI=F ISym2E= 0 IDoP0=0 IntGTp=1.
 FoFCou: FMM=F IPFlag=           0 FMFlag=      100000 FMFlg1=           0
         NFxFlg=           0 DoJE=F BraDBF=F KetDBF=F FulRan=T
         wScrn=  0.000000 ICntrl=         0 IOpCl=  1 I1Cent=           0 NGrid=           0
         NMat0=    1 NMatS0=      1 NMatT0=    0 NMatD0=    1 NMtDS0=    0 NMtDT0=    0
 Symmetry not used in FoFCou.
 CoulSu:  requested number of processors reduced to:  19 ShMem   1 Linda.
 NMat=     1 NSing=     1 JSym2X= 0.
 CoulSu:  requested number of processors reduced to:  19 ShMem   1 Linda.
 NMat=     1 NSing=     1 JSym2X= 0.
 CoulSu:  requested number of processors reduced to:  19 ShMem   1 Linda.
 NMat=     1 NSing=     1 JSym2X= 0.
 CoulSu:  requested number of processors reduced to:  19 ShMem   1 Linda.
 NMat=     1 NSing=     1 JSym2X= 0.
 CoulSu:  requested number of processors reduced to:  19 ShMem   1 Linda.
 NMat=     1 NSing=     1 JSym2X= 0.
 CoulSu:  requested number of processors reduced to:  19 ShMem   1 Linda.
 NMat=     1 NSing=     1 JSym2X= 0.
 CoulSu:  requested number of processors reduced to:  19 ShMem   1 Linda.
 NMat=     1 NSing=     1 JSym2X= 0.
 CoulSu:  requested number of processors reduced to:  19 ShMem   1 Linda.
 NMat=     1 NSing=     1 JSym2X= 0.
 CoulSu:  requested number of processors reduced to:  19 ShMem   1 Linda.
 NMat=     1 NSing=     1 JSym2X= 0.
 CoulSu:  requested number of processors reduced to:  19 ShMem   1 Linda.
 NMat=     1 NSing=     1 JSym2X= 0.
 CoulSu:  requested number of processors reduced to:  19 ShMem   1 Linda.
 NMat=     1 NSing=     1 JSym2X= 0.
 CoulSu:  requested number of processors reduced to:  19 ShMem   1 Linda.
 Excitation Energies [eV] at current iteration:
 Root      1 :     2.075594390128385
 Root      2 :     5.837830524523314
 Root      3 :     6.686507594915671
 Root      4 :     6.757831178254917
 Root      5 :     7.685971540062939
 Root      6 :     8.319038178656843
 Root      7 :     9.079757971559753
 Root      8 :     9.181984356965934
 Root      9 :     9.873178126167067
 Root     10 :     9.952207496595044
 Root     11 :     9.987909194127205
 Root     12 :    10.043441732483690
 Iteration     2 Dimension    24 NMult    12 NNew     12
 Estimated number of processors is:   18
 CISAX will form     1 AO SS matrices at one time.
 NMat=     1 NSing=     1 JSym2X= 0.
 CoulSu:  requested number of processors reduced to:  19 ShMem   1 Linda.
 NMat=     1 NSing=     1 JSym2X= 0.
 CoulSu:  requested number of processors reduced to:  19 ShMem   1 Linda.
 NMat=     1 NSing=     1 JSym2X= 0.
 CoulSu:  requested number of processors reduced to:  19 ShMem   1 Linda.
 NMat=     1 NSing=     1 JSym2X= 0.
 CoulSu:  requested number of processors reduced to:  19 ShMem   1 Linda.
 NMat=     1 NSing=     1 JSym2X= 0.
 CoulSu:  requested number of processors reduced to:  19 ShMem   1 Linda.
 NMat=     1 NSing=     1 JSym2X= 0.
 CoulSu:  requested number of processors reduced to:  19 ShMem   1 Linda.
 NMat=     1 NSing=     1 JSym2X= 0.
 CoulSu:  requested number of processors reduced to:  19 ShMem   1 Linda.
 NMat=     1 NSing=     1 JSym2X= 0.
 CoulSu:  requested number of processors reduced to:  19 ShMem   1 Linda.
 NMat=     1 NSing=     1 JSym2X= 0.
 CoulSu:  requested number of processors reduced to:  19 ShMem   1 Linda.
 NMat=     1 NSing=     1 JSym2X= 0.
 CoulSu:  requested number of processors reduced to:  19 ShMem   1 Linda.
 NMat=     1 NSing=     1 JSym2X= 0.
 CoulSu:  requested number of processors reduced to:  19 ShMem   1 Linda.
 NMat=     1 NSing=     1 JSym2X= 0.
 CoulSu:  requested number of processors reduced to:  19 ShMem   1 Linda.
 Root      1 not converged, maximum delta is    0.057742392124926
 Excitation Energies [eV] at current iteration:
 Root      1 :     1.646543680067308   Change is   -0.429050710061077
 Root      2 :     4.943335263977043   Change is   -0.894495260546271
 Root      3 :     6.427071809671611   Change is   -0.330759368583305
 Root      4 :     6.485397256870192   Change is   -0.201110338045480
 Root      5 :     6.906533268594045   Change is   -3.136908463889641
 Root      6 :     7.482413469597896   Change is   -0.203558070465043
 Root      7 :     7.731376623999355   Change is   -0.587661554657488
 Root      8 :     8.544550808939958   Change is   -0.637433548025977
 Root      9 :     8.818910728382120   Change is   -0.260847243177632
 Root     10 :     9.705243724404985   Change is   -0.167934401762082
 Root     11 :     9.752048753597160   Change is   -0.200158742997883
 Root     12 :     9.794131066926807   Change is   -0.193778127200399
 Iteration     3 Dimension    27 NMult    24 NNew      3
 Estimated number of processors is:   18
 CISAX will form     1 AO SS matrices at one time.
 NMat=     1 NSing=     1 JSym2X= 0.
 CoulSu:  requested number of processors reduced to:  19 ShMem   1 Linda.
 NMat=     1 NSing=     1 JSym2X= 0.
 CoulSu:  requested number of processors reduced to:  19 ShMem   1 Linda.
 NMat=     1 NSing=     1 JSym2X= 0.
 CoulSu:  requested number of processors reduced to:  19 ShMem   1 Linda.
 Root      1 not converged, maximum delta is    0.006137947663631
 Excitation Energies [eV] at current iteration:
 Root      1 :     1.633184070514911   Change is   -0.013359609552397
 Root      2 :     4.779142499892740   Change is   -0.164192764084304
 Root      3 :     6.316959543517098   Change is   -0.110112266154514
 Iteration     4 Dimension    30 NMult    27 NNew      3
 Estimated number of processors is:   18
 CISAX will form     1 AO SS matrices at one time.
 NMat=     1 NSing=     1 JSym2X= 0.
 CoulSu:  requested number of processors reduced to:  19 ShMem   1 Linda.
 NMat=     1 NSing=     1 JSym2X= 0.
 CoulSu:  requested number of processors reduced to:  19 ShMem   1 Linda.
 NMat=     1 NSing=     1 JSym2X= 0.
 CoulSu:  requested number of processors reduced to:  19 ShMem   1 Linda.
 Root      1 not converged, maximum delta is    0.001030865559413
 Excitation Energies [eV] at current iteration:
 Root      1 :     1.632723436083118   Change is   -0.000460634431794
 Root      2 :     4.763403058353322   Change is   -0.015739441539419
 Root      3 :     6.296127746752714   Change is   -0.020831796764384
 Iteration     5 Dimension    33 NMult    30 NNew      3
 Estimated number of processors is:   18
 CISAX will form     1 AO SS matrices at one time.
 NMat=     1 NSing=     1 JSym2X= 0.
 CoulSu:  requested number of processors reduced to:  19 ShMem   1 Linda.
 NMat=     1 NSing=     1 JSym2X= 0.
 CoulSu:  requested number of processors reduced to:  19 ShMem   1 Linda.
 NMat=     1 NSing=     1 JSym2X= 0.
 CoulSu:  requested number of processors reduced to:  19 ShMem   1 Linda.
 Root      1 has converged.
 Excitation Energies [eV] at current iteration:
 Root      1 :     1.632692884170555   Change is   -0.000030551912563
 Root      2 :     4.761411174391180   Change is   -0.001991883962141
 Root      3 :     6.293188894488123   Change is   -0.002938852264591
 Convergence achieved on expansion vectors.
 ***********************************************************************
 Stability analysis using <AA,BB:AA,BB> singles matrix:
 ***********************************************************************
 1PDM for each excited state written to RWF  633
 Ground to excited state transition densities written to RWF  633

 Eigenvectors of the stability matrix:
 
 Eigenvector   1:  2.022-A    Eigenvalue= 0.0600004  <S**2>=0.772
      9B -> 10B        0.98406
 The wavefunction is stable under the perturbations considered.
 Leave Link  914 at Fri Apr 16 23:00:15 2021, MaxMem=   104857600 cpu:            7593.5 elap:             197.1
 (Enter /s/ls4/users/knvvv/bin/g16sse/l508.exe)
 The wavefunction is already stable.
 Leave Link  508 at Fri Apr 16 23:00:15 2021, MaxMem=   104857600 cpu:               2.2 elap:               0.1
 (Enter /s/ls4/users/knvvv/bin/g16sse/l601.exe)
 Copying SCF densities to generalized density rwf, IOpCl= 1 IROHF=0.

 **********************************************************************

            Population analysis using the SCF density.

 **********************************************************************

 Orbital symmetries:
 Alpha Orbitals:
       Occupied  (A) (A) (A) (A) (A) (A) (A) (A) (A) (A)
       Virtual   (A) (A) (A) (A) (A) (A) (A) (A) (A) (A) (A) (A)
                 (A) (A) (A) (A) (A) (A) (A) (A) (A) (A) (A) (A)
                 (A) (A) (A) (A) (A) (A) (A) (A) (A) (A) (A) (A)
                 (A) (A) (A) (A) (A) (A) (A) (A) (A) (A) (A) (A)
                 (A) (A) (A) (A) (A) (A) (A) (A) (A) (A) (A) (A)
                 (A) (A) (A) (A) (A) (A) (A) (A) (A) (A) (A) (A)
                 (A) (A) (A) (A) (A) (A) (A) (A) (A) (A) (A) (A)
                 (A) (A) (A) (A) (A) (A) (A) (A) (A) (A) (A) (A)
                 (A) (A) (A) (A) (A) (A) (A) (A) (A) (A) (A) (A)
                 (A) (A) (A) (A) (A) (A) (A) (A) (A) (A) (A) (A)
                 (A) (A) (A) (A) (A) (A) (A) (A) (A) (A) (A) (A)
                 (A) (A) (A) (A) (A) (A) (A) (A) (A) (A) (A) (A)
                 (A) (A) (A) (A) (A) (A) (A) (A) (A) (A) (A) (A)
                 (A) (A) (A) (A) (A) (A) (A) (A) (A) (A) (A) (A)
                 (A) (A) (A) (A) (A) (A) (A) (A) (A) (A) (A) (A)
                 (A) (A) (A) (A) (A) (A) (A) (A) (A) (A) (A) (A)
                 (A) (A) (A) (A) (A) (A) (A) (A) (A) (A) (A) (A)
                 (A) (A) (A) (A) (A) (A) (A) (A) (A) (A) (A) (A)
                 (A) (A) (A) (A) (A) (A) (A) (A) (A) (A) (A) (A)
                 (A) (A) (A) (A) (A) (A) (A) (A) (A) (A) (A) (A)
                 (A) (A) (A) (A) (A) (A) (A) (A) (A) (A) (A) (A)
                 (A) (A)
 Beta  Orbitals:
       Occupied  (A) (A) (A) (A) (A) (A) (A) (A) (A)
       Virtual   (A) (A) (A) (A) (A) (A) (A) (A) (A) (A) (A) (A)
                 (A) (A) (A) (A) (A) (A) (A) (A) (A) (A) (A) (A)
                 (A) (A) (A) (A) (A) (A) (A) (A) (A) (A) (A) (A)
                 (A) (A) (A) (A) (A) (A) (A) (A) (A) (A) (A) (A)
                 (A) (A) (A) (A) (A) (A) (A) (A) (A) (A) (A) (A)
                 (A) (A) (A) (A) (A) (A) (A) (A) (A) (A) (A) (A)
                 (A) (A) (A) (A) (A) (A) (A) (A) (A) (A) (A) (A)
                 (A) (A) (A) (A) (A) (A) (A) (A) (A) (A) (A) (A)
                 (A) (A) (A) (A) (A) (A) (A) (A) (A) (A) (A) (A)
                 (A) (A) (A) (A) (A) (A) (A) (A) (A) (A) (A) (A)
                 (A) (A) (A) (A) (A) (A) (A) (A) (A) (A) (A) (A)
                 (A) (A) (A) (A) (A) (A) (A) (A) (A) (A) (A) (A)
                 (A) (A) (A) (A) (A) (A) (A) (A) (A) (A) (A) (A)
                 (A) (A) (A) (A) (A) (A) (A) (A) (A) (A) (A) (A)
                 (A) (A) (A) (A) (A) (A) (A) (A) (A) (A) (A) (A)
                 (A) (A) (A) (A) (A) (A) (A) (A) (A) (A) (A) (A)
                 (A) (A) (A) (A) (A) (A) (A) (A) (A) (A) (A) (A)
                 (A) (A) (A) (A) (A) (A) (A) (A) (A) (A) (A) (A)
                 (A) (A) (A) (A) (A) (A) (A) (A) (A) (A) (A) (A)
                 (A) (A) (A) (A) (A) (A) (A) (A) (A) (A) (A) (A)
                 (A) (A) (A) (A) (A) (A) (A) (A) (A) (A) (A) (A)
                 (A) (A) (A)
 The electronic state is 2-A.
 Alpha  occ. eigenvalues --  -19.64939 -10.55694  -1.11936  -0.81376  -0.57530
 Alpha  occ. eigenvalues --   -0.51501  -0.49316  -0.49025  -0.40606  -0.35040
 Alpha virt. eigenvalues --    0.03537   0.07411   0.10904   0.11049   0.14646
 Alpha virt. eigenvalues --    0.14823   0.15051   0.20406   0.30321   0.31345
 Alpha virt. eigenvalues --    0.33972   0.34417   0.34898   0.35805   0.38802
 Alpha virt. eigenvalues --    0.39797   0.42530   0.44413   0.50559   0.56535
 Alpha virt. eigenvalues --    0.61564   0.64689   0.65038   0.66645   0.68785
 Alpha virt. eigenvalues --    0.71261   0.72615   0.76004   0.76775   0.80859
 Alpha virt. eigenvalues --    0.86853   0.93936   0.97031   0.99852   1.02593
 Alpha virt. eigenvalues --    1.02838   1.03295   1.04108   1.06909   1.11153
 Alpha virt. eigenvalues --    1.12075   1.14203   1.26773   1.32905   1.36107
 Alpha virt. eigenvalues --    1.37071   1.41057   1.43250   1.44398   1.60217
 Alpha virt. eigenvalues --    1.61455   1.68060   1.72262   1.76885   1.80815
 Alpha virt. eigenvalues --    1.81333   1.87106   1.87702   1.91479   1.94280
 Alpha virt. eigenvalues --    1.96841   1.99571   2.00837   2.03217   2.04363
 Alpha virt. eigenvalues --    2.08766   2.12512   2.13738   2.16915   2.20888
 Alpha virt. eigenvalues --    2.27098   2.31376   2.33801   2.40656   2.44459
 Alpha virt. eigenvalues --    2.47031   2.48871   2.52343   2.53096   2.54550
 Alpha virt. eigenvalues --    2.62102   2.62685   2.64434   2.68617   2.72154
 Alpha virt. eigenvalues --    2.76452   2.79247   2.81722   2.82799   2.87551
 Alpha virt. eigenvalues --    2.91798   2.93238   2.95347   3.00464   3.06085
 Alpha virt. eigenvalues --    3.07598   3.12768   3.16653   3.18362   3.28035
 Alpha virt. eigenvalues --    3.34414   3.38703   3.50819   3.55121   3.56181
 Alpha virt. eigenvalues --    3.68804   3.73761   3.76777   3.77759   3.86056
 Alpha virt. eigenvalues --    3.94062   4.00439   4.02632   4.06042   4.14474
 Alpha virt. eigenvalues --    4.16497   4.24503   4.27819   4.38943   4.45957
 Alpha virt. eigenvalues --    4.53430   4.57033   4.96793   5.09156   5.12601
 Alpha virt. eigenvalues --    5.21654   5.25288   5.35563   5.42043   5.45849
 Alpha virt. eigenvalues --    5.47779   5.54471   5.60150   5.62023   5.67340
 Alpha virt. eigenvalues --    5.71114   5.72720   5.73980   5.76505   5.82600
 Alpha virt. eigenvalues --    5.86041   5.89635   5.90586   5.94808   5.97551
 Alpha virt. eigenvalues --    6.02064   6.05548   6.14597   6.19872   6.21703
 Alpha virt. eigenvalues --    6.25020   6.37831   6.41524   6.51019   6.51206
 Alpha virt. eigenvalues --    6.52523   6.57544   6.66056   6.69550   6.83171
 Alpha virt. eigenvalues --    6.85943   6.93382   7.06077   7.06302   7.06762
 Alpha virt. eigenvalues --    7.07958   7.09441   7.11403   7.11959   7.13151
 Alpha virt. eigenvalues --    7.23910   7.30048   7.33288   7.36313   7.37660
 Alpha virt. eigenvalues --    7.38798   7.45433   7.49419   7.50690   7.51422
 Alpha virt. eigenvalues --    7.53973   7.56049   7.61851   7.67156   7.71920
 Alpha virt. eigenvalues --    7.76312   7.92599   7.95936   8.04982   8.06307
 Alpha virt. eigenvalues --    8.07034   8.10511   8.11376   8.14155   8.14971
 Alpha virt. eigenvalues --    8.17826   8.18730   8.19077   8.23617   8.25095
 Alpha virt. eigenvalues --    8.28118   8.34026   8.39182   8.42668   8.46997
 Alpha virt. eigenvalues --    8.55469   8.60422   8.67060   8.76424   8.94481
 Alpha virt. eigenvalues --    8.96013   9.03711   9.18167   9.19858   9.26054
 Alpha virt. eigenvalues --    9.37821   9.39508   9.65317   9.66898   9.70189
 Alpha virt. eigenvalues --    9.77971   9.85699   9.87026   9.89639  10.09107
 Alpha virt. eigenvalues --   10.12474  10.22005  10.25071  10.48915  10.64630
 Alpha virt. eigenvalues --   10.68590  10.94346  11.08662  11.21198  11.24425
 Alpha virt. eigenvalues --   11.27791  11.30926  11.45943  11.49758  11.64219
 Alpha virt. eigenvalues --   11.66355  12.12206  12.24087  12.45476  13.05094
 Alpha virt. eigenvalues --   13.44998  13.61096  13.90072  14.12660  16.31147
 Alpha virt. eigenvalues --   29.00535  48.05230 146.53987 251.11914
  Beta  occ. eigenvalues --  -19.63718 -10.55239  -1.07498  -0.79114  -0.53354
  Beta  occ. eigenvalues --   -0.48496  -0.48321  -0.44823  -0.38065
  Beta virt. eigenvalues --   -0.10185   0.03742   0.07588   0.10975   0.11104
  Beta virt. eigenvalues --    0.13438   0.14922   0.15171   0.20811   0.29694
  Beta virt. eigenvalues --    0.31784   0.34413   0.35089   0.35568   0.36201
  Beta virt. eigenvalues --    0.38788   0.41148   0.43188   0.44786   0.50939
  Beta virt. eigenvalues --    0.56576   0.61802   0.64943   0.65309   0.67697
  Beta virt. eigenvalues --    0.68656   0.71092   0.73376   0.75708   0.76618
  Beta virt. eigenvalues --    0.80270   0.86798   0.94030   0.97146   1.00068
  Beta virt. eigenvalues --    1.01349   1.02497   1.02706   1.03712   1.07431
  Beta virt. eigenvalues --    1.11175   1.12025   1.14148   1.27589   1.33249
  Beta virt. eigenvalues --    1.36721   1.37731   1.41264   1.43792   1.45374
  Beta virt. eigenvalues --    1.60885   1.61792   1.70321   1.72725   1.77526
  Beta virt. eigenvalues --    1.80990   1.83099   1.87657   1.88279   1.91878
  Beta virt. eigenvalues --    1.94413   1.97231   1.99799   2.01034   2.03632
  Beta virt. eigenvalues --    2.04951   2.08857   2.12523   2.13984   2.16863
  Beta virt. eigenvalues --    2.20921   2.26991   2.31267   2.33487   2.40382
  Beta virt. eigenvalues --    2.43951   2.46822   2.48628   2.52584   2.53337
  Beta virt. eigenvalues --    2.54727   2.62533   2.63271   2.64441   2.68464
  Beta virt. eigenvalues --    2.71946   2.76554   2.79070   2.82105   2.82948
  Beta virt. eigenvalues --    2.87250   2.91114   2.92797   2.95272   3.01157
  Beta virt. eigenvalues --    3.06319   3.07646   3.13714   3.17666   3.19416
  Beta virt. eigenvalues --    3.27753   3.34169   3.39549   3.52091   3.55752
  Beta virt. eigenvalues --    3.56855   3.69344   3.73954   3.78263   3.79105
  Beta virt. eigenvalues --    3.86632   3.95284   4.02061   4.04458   4.07339
  Beta virt. eigenvalues --    4.16887   4.18104   4.26174   4.29107   4.39949
  Beta virt. eigenvalues --    4.46735   4.54704   4.59385   4.98385   5.11727
  Beta virt. eigenvalues --    5.15480   5.23470   5.28182   5.37277   5.44089
  Beta virt. eigenvalues --    5.48670   5.49770   5.56217   5.61858   5.63319
  Beta virt. eigenvalues --    5.67272   5.71365   5.74016   5.74899   5.77081
  Beta virt. eigenvalues --    5.84012   5.86241   5.91074   5.91529   5.95232
  Beta virt. eigenvalues --    6.00674   6.04900   6.09264   6.15034   6.21949
  Beta virt. eigenvalues --    6.24171   6.27450   6.40089   6.43015   6.52651
  Beta virt. eigenvalues --    6.52961   6.55103   6.60937   6.69171   6.70821
  Beta virt. eigenvalues --    6.85431   6.86556   6.92983   7.06470   7.06957
  Beta virt. eigenvalues --    7.07745   7.08378   7.10667   7.11145   7.11694
  Beta virt. eigenvalues --    7.14091   7.23735   7.26467   7.30641   7.31517
  Beta virt. eigenvalues --    7.36847   7.39119   7.43600   7.46901   7.52023
  Beta virt. eigenvalues --    7.52488   7.55116   7.56361   7.62107   7.65778
  Beta virt. eigenvalues --    7.67291   7.76640   7.90078   7.95231   8.02718
  Beta virt. eigenvalues --    8.04730   8.06989   8.07632   8.11842   8.13367
  Beta virt. eigenvalues --    8.15005   8.16316   8.17928   8.19258   8.23823
  Beta virt. eigenvalues --    8.25607   8.28352   8.33074   8.38786   8.42802
  Beta virt. eigenvalues --    8.47933   8.55749   8.62004   8.68392   8.77410
  Beta virt. eigenvalues --    8.94608   8.96806   8.98310   9.14099   9.18554
  Beta virt. eigenvalues --    9.29422   9.39104   9.40939   9.67183   9.68642
  Beta virt. eigenvalues --    9.71419   9.79930   9.87178   9.89589   9.89949
  Beta virt. eigenvalues --   10.13794  10.17507  10.24814  10.26063  10.53623
  Beta virt. eigenvalues --   10.67567  10.69218  10.94112  11.17555  11.27797
  Beta virt. eigenvalues --   11.32387  11.34519  11.37006  11.51090  11.57790
  Beta virt. eigenvalues --   11.72403  11.73044  12.20089  12.34246  12.52057
  Beta virt. eigenvalues --   13.15880  13.53603  13.64106  14.01046  14.21166
  Beta virt. eigenvalues --   16.33670  29.12949  48.14537 146.56460 251.11200
          Condensed to atoms (all electrons):
               1          2          3          4          5          6
     1  C    5.486595  -0.068741   0.260530   0.356364   0.346636   0.357365
     2  O   -0.068741   8.110710   0.160483  -0.000899  -0.001457   0.000452
     3  H    0.260530   0.160483   0.362534  -0.011661  -0.007511  -0.012987
     4  H    0.356364  -0.000899  -0.011661   0.477919  -0.027511  -0.027443
     5  H    0.346636  -0.001457  -0.007511  -0.027511   0.497349  -0.024953
     6  H    0.357365   0.000452  -0.012987  -0.027443  -0.024953   0.478992
     7  H    0.028309   0.282305  -0.038200  -0.000124  -0.000687   0.000307
               7
     1  C    0.028309
     2  O    0.282305
     3  H   -0.038200
     4  H   -0.000124
     5  H   -0.000687
     6  H    0.000307
     7  H    0.444744
          Atomic-Atomic Spin Densities.
               1          2          3          4          5          6
     1  C    0.488262  -0.102568   0.079814  -0.009472  -0.004780  -0.011476
     2  O   -0.102568   0.697795  -0.036966   0.004805   0.003852   0.005157
     3  H    0.079814  -0.036966  -0.008058  -0.003349  -0.004235  -0.003401
     4  H   -0.009472   0.004805  -0.003349  -0.021510   0.008555   0.010618
     5  H   -0.004780   0.003852  -0.004235   0.008555  -0.027065   0.008706
     6  H   -0.011476   0.005157  -0.003401   0.010618   0.008706  -0.018781
     7  H    0.000366   0.014044   0.004799  -0.000248   0.000027  -0.000324
               7
     1  C    0.000366
     2  O    0.014044
     3  H    0.004799
     4  H   -0.000248
     5  H    0.000027
     6  H   -0.000324
     7  H   -0.038489
 Mulliken charges and spin densities:
               1          2
     1  C   -0.767058   0.440146
     2  O   -0.482855   0.586118
     3  H    0.286812   0.028605
     4  H    0.233354  -0.010602
     5  H    0.218133  -0.014940
     6  H    0.228268  -0.009501
     7  H    0.283346  -0.019826
 Sum of Mulliken charges =  -0.00000   1.00000
 Mulliken charges and spin densities with hydrogens summed into heavy atoms:
               1          2
     1  C    0.199508   0.433707
     2  O   -0.199508   0.566293
 Electronic spatial extent (au):  <R**2>=            156.9833
 Charge=              0.0000 electrons
 Dipole moment (field-independent basis, Debye):
    X=             -1.4821    Y=              1.4699    Z=             -0.0013  Tot=              2.0874
 Quadrupole moment (field-independent basis, Debye-Ang):
   XX=            -14.8113   YY=            -12.8870   ZZ=            -14.8952
   XY=              2.5529   XZ=              0.0004   YZ=              0.0081
 Traceless Quadrupole moment (field-independent basis, Debye-Ang):
   XX=             -0.6135   YY=              1.3108   ZZ=             -0.6973
   XY=              2.5529   XZ=              0.0004   YZ=              0.0081
 Octapole moment (field-independent basis, Debye-Ang**2):
  XXX=              4.9352  YYY=              2.1672  ZZZ=              0.5756  XYY=              2.7019
  XXY=              3.4742  XXZ=             -0.0091  XZZ=             -0.2937  YZZ=             -0.3787
  YYZ=             -0.5720  XYZ=             -0.0524
 Hexadecapole moment (field-independent basis, Debye-Ang**3):
 XXXX=           -157.3851 YYYY=            -21.2639 ZZZZ=            -21.3301 XXXY=              6.6813
 XXXZ=             -0.0026 YYYX=              1.9706 YYYZ=             -0.0491 ZZZX=             -0.9496
 ZZZY=              0.0408 XXYY=            -26.0648 XXZZ=            -29.3883 YYZZ=             -7.3954
 XXYZ=              0.1453 YYXZ=              0.9428 ZZXY=              1.3252
 N-N= 3.711878034024D+01 E-N=-3.469129559060D+02  KE= 1.157986058512D+02
                          Isotropic Fermi Contact Couplings
        Atom                 a.u.       MegaHertz       Gauss      10(-4) cm-1
     1  C(13)              0.17344     194.97615      69.57234      65.03704
     2  O(17)              0.11284     -68.40358     -24.40810     -22.81698
     3  H(1)              -0.02708    -121.02750     -43.18562     -40.37043
     4  H(1)              -0.00345     -15.43381      -5.50717      -5.14816
     5  H(1)              -0.00468     -20.93659      -7.47070      -6.98370
     6  H(1)              -0.00300     -13.40783      -4.78425      -4.47237
     7  H(1)              -0.01038     -46.38692     -16.55201     -15.47301
 PrsmSu:  requested number of processors reduced to:  21 ShMem   1 Linda.
 --------------------------------------------------------
       Center         ----  Spin Dipole Couplings  ----
                      3XX-RR        3YY-RR        3ZZ-RR
 --------------------------------------------------------
     1   Atom        0.584250     -0.290097     -0.294153
     2   Atom        2.562354     -1.268934     -1.293420
     3   Atom        0.255666     -0.126914     -0.128752
     4   Atom        0.000695     -0.033070      0.032374
     5   Atom       -0.001070      0.032931     -0.031860
     6   Atom        0.001334     -0.001576      0.000242
     7   Atom       -0.022251      0.111876     -0.089625
 --------------------------------------------------------
                        XY            XZ            YZ
 --------------------------------------------------------
     1   Atom       -0.052544      0.002764     -0.000470
     2   Atom       -0.376722     -0.004773      0.000598
     3   Atom       -0.014616     -0.000207     -0.000105
     4   Atom        0.001753     -0.015746     -0.016592
     5   Atom       -0.013545      0.003219     -0.018915
     6   Atom        0.010202      0.012676      0.036479
     7   Atom        0.025110     -0.000103     -0.000147
 --------------------------------------------------------


 ---------------------------------------------------------------------------------
              Anisotropic Spin Dipole Couplings in Principal Axis System
 ---------------------------------------------------------------------------------

       Atom             a.u.   MegaHertz   Gauss  10(-4) cm-1        Axes

              Baa    -0.2943   -39.486   -14.090   -13.171  0.0142  0.2880  0.9575
     1 C(13)  Bbb    -0.2932   -39.338   -14.037   -13.122  0.0581  0.9558 -0.2883
              Bcc     0.5874    78.824    28.126    26.293  0.9982 -0.0598  0.0032
 
              Baa    -1.3056    94.474    33.711    31.513  0.0969  0.9952 -0.0109
     2 O(17)  Bbb    -1.2934    93.591    33.396    31.219  0.0023  0.0107  0.9999
              Bcc     2.5991  -188.066   -67.106   -62.732  0.9953 -0.0969 -0.0012
 
              Baa    -0.1288   -68.701   -24.514   -22.916  0.0038  0.0868  0.9962
     3 H(1)   Bbb    -0.1275   -68.008   -24.267   -22.685  0.0379  0.9955 -0.0869
              Bcc     0.2562   136.709    48.781    45.601  0.9993 -0.0381 -0.0005
 
              Baa    -0.0371   -19.820    -7.072    -6.611  0.0566  0.9681  0.2439
     4 H(1)   Bbb    -0.0051    -2.744    -0.979    -0.915  0.9336 -0.1379  0.3308
              Bcc     0.0423    22.564     8.051     7.527 -0.3539 -0.2090  0.9116
 
              Baa    -0.0370   -19.733    -7.041    -6.582  0.0129  0.2635  0.9646
     5 H(1)   Bbb    -0.0055    -2.940    -1.049    -0.981  0.9525  0.2903 -0.0920
              Bcc     0.0425    22.673     8.090     7.563 -0.3043  0.9199 -0.2472
 
              Baa    -0.0372   -19.862    -7.087    -6.625  0.0442  0.7083 -0.7045
     6 H(1)   Bbb    -0.0050    -2.676    -0.955    -0.893  0.9286 -0.2892 -0.2324
              Bcc     0.0422    22.538     8.042     7.518  0.3684  0.6440  0.6705
 
              Baa    -0.0896   -47.820   -17.063   -15.951  0.0013  0.0006  1.0000
     7 H(1)   Bbb    -0.0268   -14.298    -5.102    -4.769  0.9840 -0.1782 -0.0012
              Bcc     0.1164    62.118    22.165    20.720  0.1782  0.9840 -0.0008
 

 ---------------------------------------------------------------------------------

 PrsmSu:  requested number of processors reduced to:  21 ShMem   1 Linda.
 No NMR shielding tensors so no spin-rotation constants.
 Leave Link  601 at Fri Apr 16 23:00:19 2021, MaxMem=   104857600 cpu:             162.3 elap:               3.7
 (Enter /s/ls4/users/knvvv/bin/g16sse/l9999.exe)

 Test job not archived.
 1\1\GINC-N305\Stability\UM062X\def2QZVP\C1H5O1(2)\KNVVV\16-Apr-2021\0\
 \#P M062X/Def2QZVP Integral=UltraFineGrid SCF=NoSymm Stable=(RExt, Opt
 ) IOp(1/33=1)\\Database calculations.\\0,2\C,0,-1.2114878103,0.0079679
 806,0.0004070003\O,0,1.2939653763,-0.1086940653,0.0001330002\H,0,0.009
 4760299,-0.1180202851,0.0027990037\H,0,-1.5255280487,-0.2332502186,1.0
 100723658\H,0,-1.4306677351,1.033234454,-0.2780821152\H,0,-1.552711884
 ,-0.710113534,-0.7377048357\H,0,1.4166392462,0.8498957043,-0.000591001
 \\Version=ES64L-G16RevA.03\State=2-A\HF=-116.2374665\S2=0.759704\S2-1=
 0.\S2A=0.750041\RMSD=7.666e-09\Dipole=-0.5831152,0.5783136,-0.0005053\
 Quadrupole=-0.4560901,0.9745411,-0.518451,1.8980116,0.000298,0.0060226
 \PG=C01 [X(C1H5O1)]\\@


 THAT'S WHAT MAKES US A GREAT COUNTRY.
 THE LITTLE THINGS ARE SERIOUS AND THE BIG ONES ARE NOT.
           WILL ROGERS
 Job cpu time:       0 days  2 hours 44 minutes 45.9 seconds.
 Elapsed time:       0 days  0 hours  4 minutes 19.9 seconds.
 File lengths (MBytes):  RWF=    141 Int=      0 D2E=      0 Chk=      9 Scr=      1
 Normal termination of Gaussian 16 at Fri Apr 16 23:00:19 2021.
