 Entering Gaussian System, Link 0=/s/ls4/users/knvvv/bin/g16sse/g16
 Input=data/database/M062X--def2-QZVPPD--12_C6H6_Platonic24.gjf
 Output=data/database/M062X--def2-QZVPPD--12_C6H6_Platonic24.log
 Initial command:
 /s/ls4/users/knvvv/bin/g16sse/l1.exe "/s/ls4/users/knvvv/bin/scratch/Gau-31388.inp" -scrdir="/s/ls4/users/knvvv/bin/scratch/"
 Entering Link 1 = /s/ls4/users/knvvv/bin/g16sse/l1.exe PID=     31389.
  
 Copyright (c) 1988,1990,1992,1993,1995,1998,2003,2009,2016,
            Gaussian, Inc.  All Rights Reserved.
  
 This is part of the Gaussian(R) 16 program.  It is based on
 the Gaussian(R) 09 system (copyright 2009, Gaussian, Inc.),
 the Gaussian(R) 03 system (copyright 2003, Gaussian, Inc.),
 the Gaussian(R) 98 system (copyright 1998, Gaussian, Inc.),
 the Gaussian(R) 94 system (copyright 1995, Gaussian, Inc.),
 the Gaussian 92(TM) system (copyright 1992, Gaussian, Inc.),
 the Gaussian 90(TM) system (copyright 1990, Gaussian, Inc.),
 the Gaussian 88(TM) system (copyright 1988, Gaussian, Inc.),
 the Gaussian 86(TM) system (copyright 1986, Carnegie Mellon
 University), and the Gaussian 82(TM) system (copyright 1983,
 Carnegie Mellon University). Gaussian is a federally registered
 trademark of Gaussian, Inc.
  
 This software contains proprietary and confidential information,
 including trade secrets, belonging to Gaussian, Inc.
  
 This software is provided under written license and may be
 used, copied, transmitted, or stored only in accord with that
 written license.
  
 The following legend is applicable only to US Government
 contracts under FAR:
  
                    RESTRICTED RIGHTS LEGEND
  
 Use, reproduction and disclosure by the US Government is
 subject to restrictions as set forth in subparagraphs (a)
 and (c) of the Commercial Computer Software - Restricted
 Rights clause in FAR 52.227-19.
  
 Gaussian, Inc.
 340 Quinnipiac St., Bldg. 40, Wallingford CT 06492
  
  
 ---------------------------------------------------------------
 Warning -- This program may not be used in any manner that
 competes with the business of Gaussian, Inc. or will provide
 assistance to any competitor of Gaussian, Inc.  The licensee
 of this program is prohibited from giving any competitor of
 Gaussian, Inc. access to this program.  By using this program,
 the user acknowledges that Gaussian, Inc. is engaged in the
 business of creating and licensing software in the field of
 computational chemistry and represents and warrants to the
 licensee that it is not a competitor of Gaussian, Inc. and that
 it will not use this program in any manner prohibited above.
 ---------------------------------------------------------------
  

 Cite this work as:
 Gaussian 16, Revision A.03,
 M. J. Frisch, G. W. Trucks, H. B. Schlegel, G. E. Scuseria, 
 M. A. Robb, J. R. Cheeseman, G. Scalmani, V. Barone, 
 G. A. Petersson, H. Nakatsuji, X. Li, M. Caricato, A. V. Marenich, 
 J. Bloino, B. G. Janesko, R. Gomperts, B. Mennucci, H. P. Hratchian, 
 J. V. Ortiz, A. F. Izmaylov, J. L. Sonnenberg, D. Williams-Young, 
 F. Ding, F. Lipparini, F. Egidi, J. Goings, B. Peng, A. Petrone, 
 T. Henderson, D. Ranasinghe, V. G. Zakrzewski, J. Gao, N. Rega, 
 G. Zheng, W. Liang, M. Hada, M. Ehara, K. Toyota, R. Fukuda, 
 J. Hasegawa, M. Ishida, T. Nakajima, Y. Honda, O. Kitao, H. Nakai, 
 T. Vreven, K. Throssell, J. A. Montgomery, Jr., J. E. Peralta, 
 F. Ogliaro, M. J. Bearpark, J. J. Heyd, E. N. Brothers, K. N. Kudin, 
 V. N. Staroverov, T. A. Keith, R. Kobayashi, J. Normand, 
 K. Raghavachari, A. P. Rendell, J. C. Burant, S. S. Iyengar, 
 J. Tomasi, M. Cossi, J. M. Millam, M. Klene, C. Adamo, R. Cammi, 
 J. W. Ochterski, R. L. Martin, K. Morokuma, O. Farkas, 
 J. B. Foresman, and D. J. Fox, Gaussian, Inc., Wallingford CT, 2016.
 
 ******************************************
 Gaussian 16:  ES64L-G16RevA.03 25-Dec-2016
                17-Apr-2021 
 ******************************************
 %RWF=temp8_78401,70GB
 %nprocshared=48
 Will use up to   48 processors via shared memory.
 Default route: MaxDisk=80GB
 ----------------------------------------------------------------------
 #P M062X/GEN Integral=UltraFineGrid SCF=NoSymm Stable=(RExt, Opt) IOp(
 1/33=1)
 ----------------------------------------------------------------------
 1/33=1,38=1,172=1/1;
 2/12=2,17=6,18=5,40=1/2;
 3/5=7,11=2,25=1,30=1,74=-55,75=-5/1,2,3;
 4/9=2/1;
 5/5=2,38=5/2;
 6/7=2,8=2,9=2,10=2,28=1/1;
 8/6=1,10=90,11=11/1;
 9/8=-3,42=1,46=1/14;
 5/5=2,8=3,17=40,38=5/8(-2);
 6/7=2,8=2,9=2,10=2,28=1/1;
 99/5=1,9=1/99;
 Leave Link    1 at Sat Apr 17 09:40:35 2021, MaxMem=           0 cpu:               8.1 elap:               0.2
 (Enter /s/ls4/users/knvvv/bin/g16sse/l101.exe)
 ONIOM data not found on unit 2.
 ----------------------
 Database calculations.
 ----------------------
 TstMul:  ICh=     0
 TstMul:  Mul=     1
 TstMul:  ICh=     0
 TstMul:  Mul=     1
 Symbolic Z-matrix:
 Charge =  0 Multiplicity = 1
 C                     0.        0.8768    0.77814 
 C                    -0.75933  -0.4384    0.77814 
 C                     0.75933  -0.4384    0.77814 
 C                     0.        0.8768   -0.77814 
 C                    -0.75933  -0.4384   -0.77814 
 C                     0.75933  -0.4384   -0.77814 
 H                     0.        1.66953  -1.51013 
 H                     0.        1.66953   1.51013 
 H                     1.44586  -0.83477   1.51013 
 H                     1.44586  -0.83477  -1.51013 
 H                    -1.44586  -0.83477  -1.51013 
 H                    -1.44586  -0.83477   1.51013 
 
 RdStrC is calling ZToCFu for IStruc=1 NZ=    12.
 PrtBox:  NBox=     1 Levels=  1 BoxLen=    8.00 SMaxX=        5.71
          Shift=            2.732276            1.577481            2.853740
 Box      1 Number                   0 centers from      1 to     12:
 After GenITR:
 ITRead=  0  0  0  0  0  0  0  0  0  0  0  0
 MicOpt= -1 -1 -1 -1 -1 -1 -1 -1 -1 -1 -1 -1
 ITRead=  0  0  0  0  0  0  0  0  0  0  0  0
 MicOpt= -1 -1 -1 -1 -1 -1 -1 -1 -1 -1 -1 -1
 NAtoms=     12 NQM=       12 NQMF=       0 NMMI=      0 NMMIF=      0
                NMic=       0 NMicF=      0.
                    Isotopes and Nuclear Properties:
 (Nuclear quadrupole moments (NQMom) in fm**2, nuclear magnetic moments (NMagM)
  in nuclear magnetons)

  Atom         1           2           3           4           5           6           7           8           9          10
 IAtWgt=          12          12          12          12          12          12           1           1           1           1
 AtmWgt=  12.0000000  12.0000000  12.0000000  12.0000000  12.0000000  12.0000000   1.0078250   1.0078250   1.0078250   1.0078250
 NucSpn=           0           0           0           0           0           0           1           1           1           1
 AtZEff=  -0.0000000  -0.0000000  -0.0000000  -0.0000000  -0.0000000  -0.0000000  -0.0000000  -0.0000000  -0.0000000  -0.0000000
 NQMom=    0.0000000   0.0000000   0.0000000   0.0000000   0.0000000   0.0000000   0.0000000   0.0000000   0.0000000   0.0000000
 NMagM=    0.0000000   0.0000000   0.0000000   0.0000000   0.0000000   0.0000000   2.7928460   2.7928460   2.7928460   2.7928460
 AtZNuc=   6.0000000   6.0000000   6.0000000   6.0000000   6.0000000   6.0000000   1.0000000   1.0000000   1.0000000   1.0000000

  Atom        11          12
 IAtWgt=           1           1
 AtmWgt=   1.0078250   1.0078250
 NucSpn=           1           1
 AtZEff=  -0.0000000  -0.0000000
 NQMom=    0.0000000   0.0000000
 NMagM=    2.7928460   2.7928460
 AtZNuc=   1.0000000   1.0000000
 No MM parameters found.
 Leave Link  101 at Sat Apr 17 09:40:35 2021, MaxMem=   104857600 cpu:               7.6 elap:               0.2
 (Enter /s/ls4/users/knvvv/bin/g16sse/l202.exe)
                          Input orientation:                          
 ---------------------------------------------------------------------
 Center     Atomic      Atomic             Coordinates (Angstroms)
 Number     Number       Type             X           Y           Z
 ---------------------------------------------------------------------
      1          6           0        0.000000    0.876801    0.778135
      2          6           0       -0.759332   -0.438401    0.778135
      3          6           0        0.759332   -0.438401    0.778135
      4          6           0        0.000000    0.876801   -0.778135
      5          6           0       -0.759332   -0.438401   -0.778135
      6          6           0        0.759332   -0.438401   -0.778135
      7          1           0        0.000000    1.669533   -1.510134
      8          1           0        0.000000    1.669533    1.510134
      9          1           0        1.445858   -0.834767    1.510134
     10          1           0        1.445858   -0.834767   -1.510134
     11          1           0       -1.445858   -0.834767   -1.510134
     12          1           0       -1.445858   -0.834767    1.510134
 ---------------------------------------------------------------------
                    Distance matrix (angstroms):
                    1          2          3          4          5
     1  C    0.000000
     2  C    1.518664   0.000000
     3  C    1.518664   1.518664   0.000000
     4  C    1.556270   2.174470   2.174470   0.000000
     5  C    2.174470   1.556270   2.174469   1.518664   0.000000
     6  C    2.174470   2.174469   1.556270   1.518664   1.518664
     7  H    2.421693   3.202522   3.202522   1.079003   2.357073
     8  H    1.079003   2.357073   2.357073   2.421693   3.202522
     9  H    2.357073   2.357073   1.079003   3.202522   3.202522
    10  H    3.202522   3.202522   2.421693   2.357073   2.357073
    11  H    3.202522   2.421693   3.202522   2.357073   1.079003
    12  H    2.357073   1.079003   2.357073   3.202522   2.421693
                    6          7          8          9         10
     6  C    0.000000
     7  H    2.357073   0.000000
     8  H    3.202522   3.020268   0.000000
     9  H    2.421693   4.181392   2.891716   0.000000
    10  H    1.079003   2.891716   4.181392   3.020268   0.000000
    11  H    2.357073   2.891716   4.181392   4.181392   2.891716
    12  H    3.202522   4.181392   2.891716   2.891716   4.181392
                   11         12
    11  H    0.000000
    12  H    3.020268   0.000000
 Stoichiometry    C6H6
 Framework group  D3H[3SGV(C2H2)]
 Deg. of freedom     4
 Full point group                 D3H     NOp  12
 Largest Abelian subgroup         C2V     NOp   4
 Largest concise Abelian subgroup C2V     NOp   4
                         Standard orientation:                         
 ---------------------------------------------------------------------
 Center     Atomic      Atomic             Coordinates (Angstroms)
 Number     Number       Type             X           Y           Z
 ---------------------------------------------------------------------
      1          6           0        0.000000    0.876801    0.778135
      2          6           0       -0.759332   -0.438401    0.778135
      3          6           0        0.759332   -0.438401    0.778135
      4          6           0        0.000000    0.876801   -0.778135
      5          6           0       -0.759332   -0.438401   -0.778135
      6          6           0        0.759332   -0.438401   -0.778135
      7          1           0        0.000000    1.669533   -1.510134
      8          1           0       -0.000000    1.669533    1.510134
      9          1           0        1.445858   -0.834767    1.510134
     10          1           0        1.445858   -0.834767   -1.510134
     11          1           0       -1.445858   -0.834767   -1.510134
     12          1           0       -1.445858   -0.834767    1.510134
 ---------------------------------------------------------------------
 Rotational constants (GHZ):           6.9990193           5.4057457           5.4057457
 Leave Link  202 at Sat Apr 17 09:40:36 2021, MaxMem=   104857600 cpu:              18.6 elap:               0.4
 (Enter /s/ls4/users/knvvv/bin/g16sse/l301.exe)
 General basis read from cards:  (5D, 7F)
 Centers:       7      8      9     10     11     12
 S 4 1.00
     Exponent=  1.9069169000D+02 Coefficients=  7.0815167000D-04
     Exponent=  2.8605532000D+01 Coefficients=  5.4678827000D-03
     Exponent=  6.5095943000D+00 Coefficients=  2.7966605000D-02
     Exponent=  1.8412455000D+00 Coefficients=  1.0764538000D-01
 S 1 1.00
     Exponent=  5.9853725000D-01 Coefficients=  1.0000000000D+00
 S 1 1.00
     Exponent=  2.1397624000D-01 Coefficients=  1.0000000000D+00
 S 1 1.00
     Exponent=  8.0316286000D-02 Coefficients=  1.0000000000D+00
 P 1 1.00
     Exponent=  2.2920000000D+00 Coefficients=  1.0000000000D+00
 P 1 1.00
     Exponent=  8.3800000000D-01 Coefficients=  1.0000000000D+00
 P 1 1.00
     Exponent=  2.9200000000D-01 Coefficients=  1.0000000000D+00
 P 1 1.00
     Exponent=  8.4063199228D-02 Coefficients=  1.0000000000D+00
 D 1 1.00
     Exponent=  2.0620000000D+00 Coefficients=  1.0000000000D+00
 D 1 1.00
     Exponent=  6.6200000000D-01 Coefficients=  1.0000000000D+00
 F 1 1.00
     Exponent=  1.3970000000D+00 Coefficients=  1.0000000000D+00
 ****
 Centers:       1      2      3      4      5      6
 S 8 1.00
     Exponent=  6.7025071029D+04 Coefficients=  3.8736308501D-05
     Exponent=  1.0039986538D+04 Coefficients=  3.0107917575D-04
     Exponent=  2.2849316911D+03 Coefficients=  1.5787918095D-03
     Exponent=  6.4714122130D+02 Coefficients=  6.6087087195D-03
     Exponent=  2.1109472335D+02 Coefficients=  2.3367123250D-02
     Exponent=  7.6177643862D+01 Coefficients=  7.0420716898D-02
     Exponent=  2.9633839163D+01 Coefficients=  1.7360344953D-01
     Exponent=  1.2187785081D+01 Coefficients=  3.2292305648D-01
 S 2 1.00
     Exponent=  5.3026006299D+01 Coefficients=  7.4897404492D-02
     Exponent=  1.5258502776D+01 Coefficients=  7.6136220983D-01
 S 1 1.00
     Exponent=  5.2403957464D+00 Coefficients=  1.0000000000D+00
 S 1 1.00
     Exponent=  2.2905022379D+00 Coefficients=  1.0000000000D+00
 S 1 1.00
     Exponent=  6.9673283006D-01 Coefficients=  1.0000000000D+00
 S 1 1.00
     Exponent=  2.7599337363D-01 Coefficients=  1.0000000000D+00
 S 1 1.00
     Exponent=  1.0739884389D-01 Coefficients=  1.0000000000D+00
 S 1 1.00
     Exponent=  4.4981404899D-02 Coefficients=  1.0000000000D+00
 P 5 1.00
     Exponent=  1.0512555082D+02 Coefficients=  8.4647553844D-04
     Exponent=  2.4884461066D+01 Coefficients=  6.6274038534D-03
     Exponent=  7.8637230826D+00 Coefficients=  3.0120390419D-02
     Exponent=  2.8407001835D+00 Coefficients=  9.9951435476D-02
     Exponent=  1.1227137335D+00 Coefficients=  2.3826299282D-01
 P 1 1.00
     Exponent=  4.6050725555D-01 Coefficients=  1.0000000000D+00
 P 1 1.00
     Exponent=  1.8937530913D-01 Coefficients=  1.0000000000D+00
 P 1 1.00
     Exponent=  7.5983791611D-02 Coefficients=  1.0000000000D+00
 D 1 1.00
     Exponent=  1.8480000000D+00 Coefficients=  1.0000000000D+00
 D 1 1.00
     Exponent=  6.4900000000D-01 Coefficients=  1.0000000000D+00
 D 1 1.00
     Exponent=  2.2800000000D-01 Coefficients=  1.0000000000D+00
 D 1 1.00
     Exponent=  7.6889830417D-02 Coefficients=  1.0000000000D+00
 F 1 1.00
     Exponent=  1.4190000000D+00 Coefficients=  1.0000000000D+00
 F 1 1.00
     Exponent=  4.8500000000D-01 Coefficients=  1.0000000000D+00
 G 1 1.00
     Exponent=  1.0110000000D+00 Coefficients=  1.0000000000D+00
 ****
 Ernie: Thresh=  0.10000D-02 Tol=  0.10000D-05 Strict=F.
 There are   196 symmetry adapted cartesian basis functions of A1  symmetry.
 There are   155 symmetry adapted cartesian basis functions of A2  symmetry.
 There are   155 symmetry adapted cartesian basis functions of B1  symmetry.
 There are   196 symmetry adapted cartesian basis functions of B2  symmetry.
 There are   159 symmetry adapted basis functions of A1  symmetry.
 There are   129 symmetry adapted basis functions of A2  symmetry.
 There are   129 symmetry adapted basis functions of B1  symmetry.
 There are   159 symmetry adapted basis functions of B2  symmetry.
   576 basis functions,   840 primitive gaussians,   702 cartesian basis functions
    21 alpha electrons       21 beta electrons
       nuclear repulsion energy       220.5203297619 Hartrees.
 IExCor= 4336 DFT=T Ex+Corr=M062X ExCW=0 ScaHFX=  0.540000
 ScaDFX=  1.000000  1.000000  1.000000  1.000000 ScalE2=  1.000000  1.000000
 IRadAn=      5 IRanWt=     -1 IRanGd=            0 ICorTp=0 IEmpDi=  4
 NAtoms=   12 NActive=   12 NUniq=    2 SFac= 4.00D+00 NAtFMM=   60 NAOKFM=F Big=F
 Integral buffers will be    131072 words long.
 Raffenetti 2 integral format.
 Two-electron integral symmetry is turned on.
 Leave Link  301 at Sat Apr 17 09:40:36 2021, MaxMem=   104857600 cpu:              10.2 elap:               0.2
 (Enter /s/ls4/users/knvvv/bin/g16sse/l302.exe)
 NPDir=0 NMtPBC=     1 NCelOv=     1 NCel=       1 NClECP=     1 NCelD=      1
         NCelK=      1 NCelE2=     1 NClLst=     1 CellRange=     0.0.
 One-electron integrals computed using PRISM.
 One-electron integral symmetry used in STVInt
 PrsmSu:  requested number of processors reduced to:   4 ShMem   1 Linda.
 PrsmSu:  requested number of processors reduced to:  19 ShMem   1 Linda.
 NBasis=   576 RedAO= T EigKep=  7.03D-06  NBF=   159   129   129   159
 NBsUse=   568 1.00D-06 EigRej=  6.44D-07 NBFU=   158   126   128   156
 Precomputing XC quadrature grid using
 IXCGrd= 4 IRadAn=           5 IRanWt=          -1 IRanGd=           0 AccXCQ= 0.00D+00.
 Generated NRdTot=       0 NPtTot=           0 NUsed=           0 NTot=          32
 NSgBfM=   700   700   700   700   700 MxSgAt=    12 MxSgA2=    12.
 Leave Link  302 at Sat Apr 17 09:41:28 2021, MaxMem=   104857600 cpu:            2444.6 elap:              52.1
 (Enter /s/ls4/users/knvvv/bin/g16sse/l303.exe)
 DipDrv:  MaxL=1.
 Leave Link  303 at Sat Apr 17 09:41:33 2021, MaxMem=   104857600 cpu:             212.0 elap:               4.6
 (Enter /s/ls4/users/knvvv/bin/g16sse/l401.exe)
 SCF N**3 symmetry information disabled.
 ExpMin= 4.50D-02 ExpMax= 6.70D+04 ExpMxC= 6.47D+02 IAcc=3 IRadAn=         5 AccDes= 0.00D+00
 Harris functional with IExCor= 1009 and IRadAn=       5 diagonalized for initial guess.
 HarFok:  IExCor= 1009 AccDes= 0.00D+00 IRadAn=         5 IDoV= 1 UseB2=F ITyADJ=14
 ICtDFT=  3500011 ScaDFX=  1.000000  1.000000  1.000000  1.000000
 FoFCou: FMM=F IPFlag=           0 FMFlag=      100000 FMFlg1=           0
         NFxFlg=           0 DoJE=T BraDBF=F KetDBF=T FulRan=T
         wScrn=  0.000000 ICntrl=       500 IOpCl=  0 I1Cent=   200000004 NGrid=           0
         NMat0=    1 NMatS0=      1 NMatT0=    0 NMatD0=    1 NMtDS0=    0 NMtDT0=    0
 Petite list used in FoFCou.
 CoulSu:  requested number of processors reduced to:  18 ShMem   1 Linda.
 CoulSu:  requested number of processors reduced to:  18 ShMem   1 Linda.
 CoulSu:  requested number of processors reduced to:  21 ShMem   1 Linda.
 CoulSu:  requested number of processors reduced to:  21 ShMem   1 Linda.
 DSYEVD-2 returned Info=      162733 IAlg= 4 N=   568 NDim=   568 NE2=      182864 trying  DSYEV.
 Harris En= -231.968862890825    
 JPrj=0 DoOrth=F DoCkMO=F.
 Initial guess orbital symmetries:
       Occupied  (A1') (A2") (E') (E') (E") (E") (A1') (A2") (E')
                 (E') (A1') (E") (E") (A1') (A2") (E') (E') (E')
                 (E') (E") (E")
       Virtual   (A2') (A2") (A1') (E') (E') (A2") (E") (E") (A1')
                 (E') (E') (A1") (A1') (E') (E') (E") (E") (E")
                 (E") (E') (E') (A2") (E") (E") (A2') (A1') (A2")
                 (E') (E') (A1') (A2") (E') (E') (A1") (E") (E")
                 (A1') (E') (E') (E') (E') (A2") (A1') (E") (E")
                 (A2') (E") (E") (E") (E") (E') (E') (A2") (E")
                 (E") (E') (E') (A1') (A1') (E') (E') (E') (E')
                 (A2') (A2") (A1') (E") (E") (A1") (E") (E") (E')
                 (E') (A2") (E") (E") (A1") (E') (E') (E") (E")
                 (A2') (A2") (E') (E') (A2") (E") (E") (A1') (E')
                 (E') (E") (E") (A1') (A2") (A2') (A1') (E') (E')
                 (E') (E') (A1") (A1') (E") (E") (E") (E") (E')
                 (E') (A2") (E') (E') (E") (E") (E") (E") (A1')
                 (A2") (E') (E') (A2') (E") (E") (E') (E') (A1')
                 (A1") (E") (E") (E') (E') (A2") (A1') (A2') (A2")
                 (E') (E') (E") (E") (A2') (A1") (E') (E') (E")
                 (E") (E") (E") (A2") (A2") (A1') (E') (E') (A1")
                 (E") (E") (E") (E") (E') (E') (A1') (A1') (E')
                 (E') (A1') (A1') (A2") (E') (E') (E") (E") (A2")
                 (E') (E') (E") (E") (A1') (E") (E") (E') (E')
                 (A2') (A2") (E') (E') (A2') (E") (E") (A1') (A1")
                 (E') (E') (A2") (A2") (E') (E') (E") (E") (E')
                 (E') (A2') (A1') (E") (E") (A1') (E') (E') (A1")
                 (A2") (A2') (E") (E") (A2") (E') (E') (E") (E")
                 (E") (E") (E') (E') (A1') (A2') (E') (E') (A1")
                 (A1") (E") (E") (E") (E") (E") (E") (A1') (A2")
                 (E') (E') (E') (E') (A1") (E') (E') (E") (E")
                 (A2") (E') (E') (A1') (E") (E") (A2") (A1') (A2')
                 (E") (E") (E') (E') (A2") (E') (E') (A1') (E")
                 (E") (E') (E') (E") (E") (A2") (A2') (E") (E")
                 (A1") (E") (E") (A1") (E') (E') (A2") (A1') (E')
                 (E') (E") (E") (A1') (A2") (A1") (A1') (A2') (E')
                 (E') (E") (E") (A2') (E") (E") (A2") (E') (E')
                 (A2") (E') (E') (E") (E") (A1') (A1') (E') (E')
                 (E") (E") (A1') (A1") (E') (E') (A2") (E") (E")
                 (E') (E') (A2') (E') (E') (E") (E") (A1') (A1')
                 (A2") (E') (E') (A2") (E") (E") (E') (E') (E")
                 (E") (E') (E') (A2') (A2") (E") (E") (A1") (E')
                 (E') (A1') (E") (E") (A1") (A1') (E') (E') (E')
                 (E') (E") (E") (A2') (A2") (E") (E") (E') (E')
                 (A2") (A2') (A1') (E") (E") (A2") (A2') (E') (E')
                 (E") (E") (A1") (E') (E') (A1') (E") (E") (E')
                 (E') (A2") (E") (E") (A1") (A1') (A2') (E') (E')
                 (E") (E") (A1") (A2') (E') (E') (E") (E") (E")
                 (E") (E') (E') (A1') (A2") (E') (E') (A1") (A2")
                 (E") (E") (E') (E') (A1') (A2') (A1") (E") (E")
                 (A2") (E") (E") (A2') (E') (E') (A1') (E") (E")
                 (A2") (E") (E") (E') (E') (A1') (E') (E') (A2")
                 (A1") (E') (E') (A1') (E") (E") (E') (E') (E")
                 (E") (A1") (A2") (E') (E') (A2') (E') (E') (E")
                 (E") (A1') (E") (E") (E') (E') (A2') (A2") (A1')
                 (E") (E") (A1") (E") (E") (E') (E') (A2") (E")
                 (E") (E') (E') (A2") (E") (E") (A1") (E') (E')
                 (A1') (E") (E") (E") (E") (A2') (E') (E') (A1")
                 (A1') (E') (E') (A2") (E") (E") (E') (E') (E")
                 (E") (A2') (A1') (E") (E") (A2") (A1") (E") (E")
                 (A2') (A2") (E') (E') (A1") (E') (E') (A1') (A2")
                 (E") (E") (A1') (E') (E') (E") (E") (A2') (A2")
                 (E') (E') (E") (E") (A1") (E") (E") (A1') (E')
                 (E') (A2") (E") (E") (A1') (E") (E") (E') (E')
                 (A2") (A1') (E") (E") (E') (E') (A2")
 The electronic state of the initial guess is 1-A1'.
 Leave Link  401 at Sat Apr 17 09:42:23 2021, MaxMem=   104857600 cpu:            2329.6 elap:              49.8
 (Enter /s/ls4/users/knvvv/bin/g16sse/l502.exe)
 Integral symmetry usage will be decided dynamically.
 Closed shell SCF:
 Using DIIS extrapolation, IDIIS=  1040.
 NGot=   104857600 LenX=   103826970 LenY=   103333464
 Requested convergence on RMS density matrix=1.00D-08 within 128 cycles.
 Requested convergence on MAX density matrix=1.00D-06.
 Requested convergence on             energy=1.00D-06.
 No special actions if energy rises.
 Fock matrices will be formed incrementally for  20 cycles.

 Cycle   1  Pass 1  IDiag  1:
 FoFJK:  IHMeth= 1 ICntrl=       0 DoSepK=F KAlg= 0 I1Cent=           0 FoldK=F
 IRaf= 980000000 NMat=       1 IRICut=       1 DoRegI=T DoRafI=F ISym2E= 1 IDoP0=0 IntGTp=1.
 FoFCou: FMM=F IPFlag=           0 FMFlag=      100000 FMFlg1=           0
         NFxFlg=           0 DoJE=F BraDBF=F KetDBF=F FulRan=T
         wScrn=  0.000000 ICntrl=         0 IOpCl=  0 I1Cent=           0 NGrid=           0
         NMat0=    1 NMatS0=      1 NMatT0=    0 NMatD0=    1 NMtDS0=    0 NMtDT0=    0
 Petite list used in FoFCou.
 CoulSu:  requested number of processors reduced to:  19 ShMem   1 Linda.
 E= -231.906281280143    
 DIIS: error= 3.35D-02 at cycle   1 NSaved=   1.
 NSaved= 1 IEnMin= 1 EnMin= -231.906281280143     IErMin= 1 ErrMin= 3.35D-02
 ErrMax= 3.35D-02  0.00D+00 EMaxC= 1.00D-01 BMatC= 2.66D-01 BMatP= 2.66D-01
 IDIUse=3 WtCom= 6.65D-01 WtEn= 3.35D-01
 Coeff-Com:  0.100D+01
 Coeff-En:   0.100D+01
 Coeff:      0.100D+01
 Gap=     0.385 Goal=   None    Shift=    0.000
 GapD=    0.385 DampG=1.000 DampE=0.500 DampFc=0.5000 IDamp=-1.
 Damping current iteration by 5.00D-01
 RMSDP=1.29D-03 MaxDP=6.56D-02              OVMax= 1.57D-01

 Cycle   2  Pass 1  IDiag  1:
 RMSU=  5.74D-04    CP:  9.25D-01
 CoulSu:  requested number of processors reduced to:  19 ShMem   1 Linda.
 E= -231.979944031277     Delta-E=       -0.073662751134 Rises=F Damp=T
 DIIS: error= 1.38D-02 at cycle   2 NSaved=   2.
 NSaved= 2 IEnMin= 2 EnMin= -231.979944031277     IErMin= 2 ErrMin= 1.38D-02
 ErrMax= 1.38D-02  0.00D+00 EMaxC= 1.00D-01 BMatC= 3.59D-02 BMatP= 2.66D-01
 IDIUse=3 WtCom= 8.62D-01 WtEn= 1.38D-01
 Coeff-Com: -0.122D+00 0.112D+01
 Coeff-En:   0.275D-01 0.973D+00
 Coeff:     -0.101D+00 0.110D+01
 Gap=     0.317 Goal=   None    Shift=    0.000
 RMSDP=1.23D-03 MaxDP=3.12D-02 DE=-7.37D-02 OVMax= 9.71D-02

 Cycle   3  Pass 1  IDiag  1:
 RMSU=  1.17D-03    CP:  8.34D-01  1.26D+00
 CoulSu:  requested number of processors reduced to:  19 ShMem   1 Linda.
 E= -232.061337240658     Delta-E=       -0.081393209381 Rises=F Damp=F
 DIIS: error= 1.02D-02 at cycle   3 NSaved=   3.
 NSaved= 3 IEnMin= 3 EnMin= -232.061337240658     IErMin= 3 ErrMin= 1.02D-02
 ErrMax= 1.02D-02  0.00D+00 EMaxC= 1.00D-01 BMatC= 8.87D-03 BMatP= 3.59D-02
 IDIUse=3 WtCom= 8.98D-01 WtEn= 1.02D-01
 Coeff-Com: -0.160D+00 0.387D+00 0.773D+00
 Coeff-En:   0.000D+00 0.000D+00 0.100D+01
 Coeff:     -0.144D+00 0.348D+00 0.796D+00
 Gap=     0.300 Goal=   None    Shift=    0.000
 DSYEVD-2 returned Info=        1137 IAlg= 4 N=   568 NDim=   568 NE2=      181924 trying  DSYEV.
 RMSDP=1.93D-04 MaxDP=1.13D-02 DE=-8.14D-02 OVMax= 1.61D-02

 Cycle   4  Pass 1  IDiag  1:
 RMSU=  1.46D-04    CP:  8.19D-01  1.38D+00  9.24D-01
 CoulSu:  requested number of processors reduced to:  19 ShMem   1 Linda.
 E= -232.068736086169     Delta-E=       -0.007398845511 Rises=F Damp=F
 DIIS: error= 1.07D-03 at cycle   4 NSaved=   4.
 NSaved= 4 IEnMin= 4 EnMin= -232.068736086169     IErMin= 4 ErrMin= 1.07D-03
 ErrMax= 1.07D-03  0.00D+00 EMaxC= 1.00D-01 BMatC= 1.19D-04 BMatP= 8.87D-03
 IDIUse=3 WtCom= 9.89D-01 WtEn= 1.07D-02
 Coeff-Com: -0.209D-01 0.443D-01 0.170D+00 0.806D+00
 Coeff-En:   0.000D+00 0.000D+00 0.000D+00 0.100D+01
 Coeff:     -0.206D-01 0.438D-01 0.169D+00 0.808D+00
 Gap=     0.300 Goal=   None    Shift=    0.000
 DSYEVD-2 returned Info=        1137 IAlg= 4 N=   568 NDim=   568 NE2=      181924 trying  DSYEV.
 RMSDP=6.56D-05 MaxDP=3.93D-03 DE=-7.40D-03 OVMax= 1.67D-03

 Cycle   5  Pass 1  IDiag  1:
 RMSU=  4.98D-05    CP:  8.18D-01  1.39D+00  8.97D-01  1.19D+00
 CoulSu:  requested number of processors reduced to:  19 ShMem   1 Linda.
 E= -232.068823242503     Delta-E=       -0.000087156333 Rises=F Damp=F
 DIIS: error= 8.50D-05 at cycle   5 NSaved=   5.
 NSaved= 5 IEnMin= 5 EnMin= -232.068823242503     IErMin= 5 ErrMin= 8.50D-05
 ErrMax= 8.50D-05  0.00D+00 EMaxC= 1.00D-01 BMatC= 1.09D-06 BMatP= 1.19D-04
 IDIUse=1 WtCom= 1.00D+00 WtEn= 0.00D+00
 Coeff-Com:  0.349D-02-0.803D-02-0.136D-01 0.475D-01 0.971D+00
 Coeff:      0.349D-02-0.803D-02-0.136D-01 0.475D-01 0.971D+00
 Gap=     0.301 Goal=   None    Shift=    0.000
 RMSDP=1.61D-05 MaxDP=9.04D-04 DE=-8.72D-05 OVMax= 2.40D-04

 Cycle   6  Pass 1  IDiag  1:
 RMSU=  4.41D-06    CP:  8.18D-01  1.39D+00  8.91D-01  1.26D+00  1.16D+00
 CoulSu:  requested number of processors reduced to:  19 ShMem   1 Linda.
 E= -232.068824175554     Delta-E=       -0.000000933051 Rises=F Damp=F
 DIIS: error= 1.85D-05 at cycle   6 NSaved=   6.
 NSaved= 6 IEnMin= 6 EnMin= -232.068824175554     IErMin= 6 ErrMin= 1.85D-05
 ErrMax= 1.85D-05  0.00D+00 EMaxC= 1.00D-01 BMatC= 5.56D-08 BMatP= 1.09D-06
 IDIUse=1 WtCom= 1.00D+00 WtEn= 0.00D+00
 Coeff-Com:  0.143D-02-0.325D-02-0.803D-02-0.137D-01 0.185D+00 0.838D+00
 Coeff:      0.143D-02-0.325D-02-0.803D-02-0.137D-01 0.185D+00 0.838D+00
 Gap=     0.301 Goal=   None    Shift=    0.000
 RMSDP=1.40D-06 MaxDP=4.25D-05 DE=-9.33D-07 OVMax= 6.17D-05

 Cycle   7  Pass 1  IDiag  1:
 RMSU=  8.83D-07    CP:  8.18D-01  1.39D+00  8.91D-01  1.27D+00  1.16D+00
                    CP:  1.16D+00
 CoulSu:  requested number of processors reduced to:  19 ShMem   1 Linda.
 E= -232.068824229288     Delta-E=       -0.000000053734 Rises=F Damp=F
 DIIS: error= 2.85D-06 at cycle   7 NSaved=   7.
 NSaved= 7 IEnMin= 7 EnMin= -232.068824229288     IErMin= 7 ErrMin= 2.85D-06
 ErrMax= 2.85D-06  0.00D+00 EMaxC= 1.00D-01 BMatC= 1.37D-09 BMatP= 5.56D-08
 IDIUse=1 WtCom= 1.00D+00 WtEn= 0.00D+00
 Coeff-Com: -0.116D-03 0.217D-03 0.423D-03-0.795D-03-0.308D-01 0.448D-01
 Coeff-Com:  0.986D+00
 Coeff:     -0.116D-03 0.217D-03 0.423D-03-0.795D-03-0.308D-01 0.448D-01
 Coeff:      0.986D+00
 Gap=     0.301 Goal=   None    Shift=    0.000
 RMSDP=4.85D-07 MaxDP=2.82D-05 DE=-5.37D-08 OVMax= 1.06D-05

 Cycle   8  Pass 1  IDiag  1:
 RMSU=  1.70D-07    CP:  8.18D-01  1.39D+00  8.91D-01  1.27D+00  1.16D+00
                    CP:  1.21D+00  1.21D+00
 CoulSu:  requested number of processors reduced to:  19 ShMem   1 Linda.
 E= -232.068824230910     Delta-E=       -0.000000001622 Rises=F Damp=F
 DIIS: error= 5.10D-07 at cycle   8 NSaved=   8.
 NSaved= 8 IEnMin= 8 EnMin= -232.068824230910     IErMin= 8 ErrMin= 5.10D-07
 ErrMax= 5.10D-07  0.00D+00 EMaxC= 1.00D-01 BMatC= 1.68D-11 BMatP= 1.37D-09
 IDIUse=1 WtCom= 1.00D+00 WtEn= 0.00D+00
 Coeff-Com: -0.150D-04 0.339D-04 0.262D-04-0.169D-03-0.238D-02-0.106D-01
 Coeff-Com:  0.155D-02 0.101D+01
 Coeff:     -0.150D-04 0.339D-04 0.262D-04-0.169D-03-0.238D-02-0.106D-01
 Coeff:      0.155D-02 0.101D+01
 Gap=     0.301 Goal=   None    Shift=    0.000
 RMSDP=9.16D-08 MaxDP=3.81D-06 DE=-1.62D-09 OVMax= 1.88D-06

 Cycle   9  Pass 1  IDiag  1:
 RMSU=  2.19D-08    CP:  8.18D-01  1.39D+00  8.91D-01  1.27D+00  1.16D+00
                    CP:  1.22D+00  1.23D+00  1.10D+00
 CoulSu:  requested number of processors reduced to:  19 ShMem   1 Linda.
 E= -232.068824230974     Delta-E=       -0.000000000064 Rises=F Damp=F
 DIIS: error= 5.50D-08 at cycle   9 NSaved=   9.
 NSaved= 9 IEnMin= 9 EnMin= -232.068824230974     IErMin= 9 ErrMin= 5.50D-08
 ErrMax= 5.50D-08  0.00D+00 EMaxC= 1.00D-01 BMatC= 2.08D-13 BMatP= 1.68D-11
 IDIUse=1 WtCom= 1.00D+00 WtEn= 0.00D+00
 Coeff-Com:  0.191D-05-0.362D-05-0.810D-05-0.127D-04 0.296D-03 0.705D-03
 Coeff-Com: -0.636D-02-0.127D+00 0.113D+01
 Coeff:      0.191D-05-0.362D-05-0.810D-05-0.127D-04 0.296D-03 0.705D-03
 Coeff:     -0.636D-02-0.127D+00 0.113D+01
 Gap=     0.301 Goal=   None    Shift=    0.000
 RMSDP=2.10D-08 MaxDP=8.45D-07 DE=-6.38D-11 OVMax= 3.92D-07

 Cycle  10  Pass 1  IDiag  1:
 RMSU=  3.10D-09    CP:  8.18D-01  1.39D+00  8.91D-01  1.27D+00  1.16D+00
                    CP:  1.22D+00  1.24D+00  1.12D+00  1.20D+00
 CoulSu:  requested number of processors reduced to:  19 ShMem   1 Linda.
 E= -232.068824230931     Delta-E=        0.000000000043 Rises=F Damp=F
 DIIS: error= 6.13D-09 at cycle  10 NSaved=  10.
 NSaved=10 IEnMin= 9 EnMin= -232.068824230974     IErMin=10 ErrMin= 6.13D-09
 ErrMax= 6.13D-09  0.00D+00 EMaxC= 1.00D-01 BMatC= 3.47D-15 BMatP= 2.08D-13
 IDIUse=1 WtCom= 1.00D+00 WtEn= 0.00D+00
 Coeff-Com:  0.110D-06-0.272D-06 0.597D-06 0.652D-05 0.221D-04 0.295D-04
 Coeff-Com:  0.539D-03 0.855D-04-0.916D-01 0.109D+01
 Coeff:      0.110D-06-0.272D-06 0.597D-06 0.652D-05 0.221D-04 0.295D-04
 Coeff:      0.539D-03 0.855D-04-0.916D-01 0.109D+01
 Gap=     0.301 Goal=   None    Shift=    0.000
 RMSDP=1.27D-09 MaxDP=3.31D-08 DE= 4.26D-11 OVMax= 4.60D-08

 SCF Done:  E(RM062X) =  -232.068824231     A.U. after   10 cycles
            NFock= 10  Conv=0.13D-08     -V/T= 2.0049
 KE= 2.309302433607D+02 PE=-9.789130517779D+02 EE= 2.953936544244D+02
 Leave Link  502 at Sat Apr 17 09:44:10 2021, MaxMem=   104857600 cpu:            4300.4 elap:             107.4
 (Enter /s/ls4/users/knvvv/bin/g16sse/l601.exe)
 Copying SCF densities to generalized density rwf, IOpCl= 0 IROHF=0.

 **********************************************************************

            Population analysis using the SCF density.

 **********************************************************************

 Orbital symmetries:
       Occupied  (A1') (A2") (E') (E') (E") (E") (A1') (A2") (E')
                 (E') (A1') (E") (E") (A1') (A2") (E') (E') (E')
                 (E') (E") (E")
       Virtual   (A1') (A2") (E') (E') (E") (E") (A1') (A2') (A2")
                 (E') (E') (A1') (E') (E') (E") (E") (A2") (E')
                 (E') (A2') (E") (E") (A1") (A1') (A2") (E") (E")
                 (E') (E') (A2") (A1') (E') (E') (A1') (A1") (E")
                 (E") (A2') (E') (E') (E") (E") (A2") (A1') (E")
                 (E") (E') (E') (E') (E') (A2") (A1') (E') (E')
                 (E") (E") (E') (E') (E") (E") (A1') (E") (E")
                 (A1") (E") (E") (E') (E') (A2") (A2') (A1') (A2")
                 (E') (E') (A1") (E') (E') (A2') (E") (E") (A2")
                 (E') (E') (E") (E") (A2") (E") (E") (A1') (E")
                 (E") (E') (E') (A1') (A2") (A2') (A1') (A1") (E')
                 (E') (E') (E') (E") (E") (A1') (E") (E") (E')
                 (E') (A2") (E') (E') (E") (E") (E") (E") (A1')
                 (E') (E') (A2") (A2') (E") (E") (E') (E') (A1")
                 (A1') (E") (E") (A2") (E') (E') (A2') (E') (E')
                 (A2") (E") (E") (A1') (A1") (A2') (E') (E') (E")
                 (E") (E") (E") (A2") (A1') (A2") (E") (E") (A1")
                 (E') (E') (E") (E") (A1') (E') (E') (A1') (E')
                 (E') (A2") (A1') (A1') (E") (E") (E') (E') (A2")
                 (E") (E") (E') (E') (A1') (E") (E") (E') (E')
                 (A2') (A2") (A2') (E') (E') (E") (E") (A1") (A1')
                 (A2") (E') (E') (A2") (E') (E') (E") (E") (E')
                 (E') (A2') (A1') (E") (E") (E') (E') (A1') (A1")
                 (A2") (A2') (E") (E") (A2") (E') (E') (E") (E")
                 (E") (E") (E') (E') (E') (E') (A1") (A1') (A2')
                 (A1") (E") (E") (E") (E") (E") (E") (E') (E')
                 (A2") (A1") (A1') (E') (E') (A2") (E') (E') (A1')
                 (E') (E') (E") (E") (A1') (E") (E") (A2") (A2')
                 (E") (E") (E') (E') (A2") (E') (E') (E") (E")
                 (A1') (E') (E') (A2") (E") (E") (A2') (E") (E")
                 (A1") (E") (E") (A1") (E') (E') (A2") (A1') (E')
                 (E') (E") (E") (A2") (A1') (A1") (A2') (A1') (E')
                 (E') (E") (E") (E") (E") (A2') (A2") (E') (E')
                 (E') (E') (A2") (E") (E") (A1') (E') (E') (A1')
                 (A1') (E") (E") (A1") (E') (E') (A2") (E") (E")
                 (A2') (E') (E') (E') (E') (A1') (E") (E") (A2")
                 (A1') (E') (E') (A2") (E") (E") (E') (E') (E')
                 (E') (E") (E") (A2') (A1") (A2") (E") (E") (A1')
                 (E') (E') (E") (E") (A1") (E') (E') (E') (E')
                 (A2') (E") (E") (A1') (A2") (E") (E") (A2") (E')
                 (E') (A2') (E") (E") (A2") (A1') (A2') (E") (E")
                 (E') (E') (A1") (E') (E') (A1') (E") (E") (E')
                 (E') (A1") (E") (E") (A1") (E') (E') (A2") (A2')
                 (E") (E") (A1') (A2') (E') (E') (E") (E") (E")
                 (E") (E') (E') (A1') (A2") (E') (E') (A1") (A2")
                 (E') (E') (E") (E") (A1') (A2') (A1") (E") (E")
                 (A2") (E") (E") (E') (E') (A2') (A1') (E") (E")
                 (A2") (E') (E') (E") (E") (E') (E') (A1') (A2")
                 (A1") (E') (E') (A1') (E') (E') (E") (E") (A1")
                 (E') (E') (E") (E") (A2") (A2') (E") (E") (E')
                 (E') (A1') (E") (E") (A2') (E') (E') (A2") (A1')
                 (E") (E") (E") (E") (A1") (E') (E') (A2") (E")
                 (E") (E') (E') (A2") (A1") (E") (E") (E') (E')
                 (E") (E") (A2') (A1') (E") (E") (E') (E') (A1")
                 (A1') (E') (E') (A2") (E") (E") (E') (E') (E")
                 (E") (A2') (A1') (E") (E") (A2") (A1") (A2') (E")
                 (E") (A1") (A2") (E') (E') (E') (E') (A1') (E")
                 (E") (A2") (A1') (E') (E') (E") (E") (A2') (A2")
                 (E') (E') (E") (E") (A1") (E") (E") (A1') (E')
                 (E') (A2") (E") (E") (A1') (E") (E") (E') (E')
                 (A2") (A1') (E") (E") (E') (E') (A2")
 The electronic state is 1-A1'.
 Alpha  occ. eigenvalues --  -10.55127 -10.55097 -10.55068 -10.55068 -10.55037
 Alpha  occ. eigenvalues --  -10.55037  -1.07549  -0.84080  -0.73007  -0.73007
 Alpha  occ. eigenvalues --   -0.61563  -0.59615  -0.59615  -0.50223  -0.49533
 Alpha  occ. eigenvalues --   -0.46438  -0.46438  -0.34954  -0.34954  -0.28317
 Alpha  occ. eigenvalues --   -0.28317
 Alpha virt. eigenvalues --    0.01762   0.02542   0.02774   0.02774   0.05385
 Alpha virt. eigenvalues --    0.05385   0.08569   0.09547   0.09771   0.10395
 Alpha virt. eigenvalues --    0.10395   0.13523   0.13732   0.13732   0.15199
 Alpha virt. eigenvalues --    0.15199   0.17930   0.18106   0.18106   0.19702
 Alpha virt. eigenvalues --    0.20434   0.20434   0.20486   0.21254   0.21331
 Alpha virt. eigenvalues --    0.21691   0.21691   0.23017   0.23017   0.24605
 Alpha virt. eigenvalues --    0.24749   0.26413   0.26413   0.27584   0.30617
 Alpha virt. eigenvalues --    0.31173   0.31173   0.31251   0.31932   0.31932
 Alpha virt. eigenvalues --    0.32396   0.32396   0.33708   0.34603   0.35038
 Alpha virt. eigenvalues --    0.35038   0.35339   0.35339   0.35518   0.35518
 Alpha virt. eigenvalues --    0.36855   0.37352   0.38556   0.38556   0.39902
 Alpha virt. eigenvalues --    0.39902   0.42176   0.42176   0.42803   0.42803
 Alpha virt. eigenvalues --    0.43222   0.44488   0.44488   0.45608   0.46737
 Alpha virt. eigenvalues --    0.46737   0.46768   0.46768   0.46919   0.48549
 Alpha virt. eigenvalues --    0.48674   0.51903   0.52310   0.52310   0.54048
 Alpha virt. eigenvalues --    0.54173   0.54173   0.55255   0.55282   0.55282
 Alpha virt. eigenvalues --    0.56765   0.59991   0.59991   0.60388   0.60388
 Alpha virt. eigenvalues --    0.62127   0.65275   0.65275   0.67433   0.73100
 Alpha virt. eigenvalues --    0.73100   0.75149   0.75149   0.76967   0.80003
 Alpha virt. eigenvalues --    0.82086   0.82763   0.84809   0.84899   0.84899
 Alpha virt. eigenvalues --    0.85999   0.85999   0.88507   0.88507   0.88733
 Alpha virt. eigenvalues --    0.88848   0.88848   0.94134   0.94134   0.96633
 Alpha virt. eigenvalues --    0.99892   0.99892   1.01868   1.01868   1.02827
 Alpha virt. eigenvalues --    1.02827   1.03612   1.05669   1.05669   1.07204
 Alpha virt. eigenvalues --    1.08907   1.10516   1.10516   1.11552   1.11552
 Alpha virt. eigenvalues --    1.15777   1.16208   1.16354   1.16354   1.19807
 Alpha virt. eigenvalues --    1.20268   1.20268   1.27225   1.31090   1.31090
 Alpha virt. eigenvalues --    1.31443   1.33651   1.33651   1.35426   1.37119
 Alpha virt. eigenvalues --    1.38624   1.39518   1.39518   1.40831   1.40831
 Alpha virt. eigenvalues --    1.45819   1.45819   1.48150   1.48561   1.48668
 Alpha virt. eigenvalues --    1.54964   1.54964   1.56806   1.57846   1.57846
 Alpha virt. eigenvalues --    1.66266   1.66266   1.70284   1.71148   1.71148
 Alpha virt. eigenvalues --    1.72716   1.74756   1.74756   1.78373   1.80935
 Alpha virt. eigenvalues --    1.84388   1.84730   1.84730   1.85464   1.85464
 Alpha virt. eigenvalues --    1.92896   1.94491   1.94491   1.94914   1.94914
 Alpha virt. eigenvalues --    2.03338   2.05323   2.05323   2.06870   2.06870
 Alpha virt. eigenvalues --    2.11128   2.13047   2.18607   2.18684   2.18684
 Alpha virt. eigenvalues --    2.20630   2.20630   2.20912   2.21600   2.23004
 Alpha virt. eigenvalues --    2.25089   2.25089   2.29443   2.29656   2.29656
 Alpha virt. eigenvalues --    2.33132   2.33132   2.33917   2.33917   2.35854
 Alpha virt. eigenvalues --    2.38484   2.39739   2.39739   2.41841   2.41841
 Alpha virt. eigenvalues --    2.43114   2.45147   2.48953   2.49506   2.51313
 Alpha virt. eigenvalues --    2.51313   2.55603   2.55970   2.55970   2.58724
 Alpha virt. eigenvalues --    2.58724   2.60924   2.60924   2.63706   2.63706
 Alpha virt. eigenvalues --    2.67872   2.67872   2.68192   2.68917   2.69524
 Alpha virt. eigenvalues --    2.74043   2.75723   2.75723   2.77738   2.77738
 Alpha virt. eigenvalues --    2.79694   2.79694   2.85289   2.85289   2.85969
 Alpha virt. eigenvalues --    2.90229   2.92720   2.93428   2.93428   2.97252
 Alpha virt. eigenvalues --    2.97617   2.97617   2.97696   2.98482   2.98482
 Alpha virt. eigenvalues --    2.99367   2.99367   3.03376   3.03973   3.03973
 Alpha virt. eigenvalues --    3.08019   3.09552   3.13279   3.13279   3.14321
 Alpha virt. eigenvalues --    3.14321   3.19407   3.29525   3.29525   3.30055
 Alpha virt. eigenvalues --    3.30055   3.30692   3.38221   3.38221   3.38661
 Alpha virt. eigenvalues --    3.40498   3.40498   3.43191   3.48793   3.48793
 Alpha virt. eigenvalues --    3.49600   3.54112   3.54112   3.57305   3.60369
 Alpha virt. eigenvalues --    3.60369   3.64174   3.77062   3.82673   3.82673
 Alpha virt. eigenvalues --    3.91604   3.91604   3.98019   4.00084   4.01640
 Alpha virt. eigenvalues --    4.05095   4.08897   4.16276   4.16276   4.23952
 Alpha virt. eigenvalues --    4.23952   4.30242   4.30242   4.36169   4.36835
 Alpha virt. eigenvalues --    4.45743   4.45743   4.51448   4.51448   4.52046
 Alpha virt. eigenvalues --    4.62231   4.62231   4.65141   4.73506   4.73506
 Alpha virt. eigenvalues --    4.73883   4.79933   4.80526   4.80526   4.85654
 Alpha virt. eigenvalues --    5.00264   5.00264   5.01690   5.03323   5.03323
 Alpha virt. eigenvalues --    5.05052   5.06343   5.06343   5.13190   5.13190
 Alpha virt. eigenvalues --    5.16206   5.17098   5.17098   5.30885   5.32099
 Alpha virt. eigenvalues --    5.33665   5.33665   5.42383   5.44020   5.44020
 Alpha virt. eigenvalues --    5.57844   5.57844   5.65113   5.65113   5.65564
 Alpha virt. eigenvalues --    5.65564   5.68652   5.73911   5.75421   5.75992
 Alpha virt. eigenvalues --    5.75992   5.77961   5.78332   5.78332   5.87423
 Alpha virt. eigenvalues --    5.87423   5.92341   5.92506   5.92506   5.96901
 Alpha virt. eigenvalues --    5.96901   5.97572   5.98956   5.98956   5.99785
 Alpha virt. eigenvalues --    6.02473   6.03916   6.03916   6.08355   6.08713
 Alpha virt. eigenvalues --    6.08713   6.10991   6.14216   6.14216   6.15567
 Alpha virt. eigenvalues --    6.16427   6.17398   6.20972   6.20972   6.24091
 Alpha virt. eigenvalues --    6.24091   6.24555   6.25551   6.25551   6.28046
 Alpha virt. eigenvalues --    6.28330   6.28330   6.37961   6.37961   6.37976
 Alpha virt. eigenvalues --    6.39868   6.39868   6.40636   6.40987   6.40987
 Alpha virt. eigenvalues --    6.40989   6.41204   6.44057   6.44057   6.44178
 Alpha virt. eigenvalues --    6.51282   6.54098   6.54098   6.57739   6.57739
 Alpha virt. eigenvalues --    6.60846   6.60846   6.62478   6.62478   6.66041
 Alpha virt. eigenvalues --    6.69414   6.71384   6.71384   6.75189   6.86217
 Alpha virt. eigenvalues --    6.91059   6.91059   6.92281   6.92281   6.92396
 Alpha virt. eigenvalues --    6.97324   6.97555   6.99199   6.99199   7.00054
 Alpha virt. eigenvalues --    7.09576   7.09576   7.20088   7.20088   7.21924
 Alpha virt. eigenvalues --    7.25819   7.34428   7.34428   7.39429   7.40696
 Alpha virt. eigenvalues --    7.40696   7.41794   7.41794   7.47685   7.47685
 Alpha virt. eigenvalues --    7.48456   7.52208   7.55216   7.55280   7.55280
 Alpha virt. eigenvalues --    7.59689   7.65047   7.65047   7.66680   7.66680
 Alpha virt. eigenvalues --    7.66927   7.71066   7.71066   7.71372   7.71372
 Alpha virt. eigenvalues --    7.72509   7.74831   7.80609   7.80609   7.81148
 Alpha virt. eigenvalues --    7.81148   7.83684   7.87003   7.87003   7.89860
 Alpha virt. eigenvalues --    7.94504   7.94504   7.95063   7.97774   7.99139
 Alpha virt. eigenvalues --    7.99139   8.01241   8.01241   8.04844   8.09977
 Alpha virt. eigenvalues --    8.09977   8.16758   8.17115   8.17115   8.19431
 Alpha virt. eigenvalues --    8.19431   8.25208   8.25418   8.29882   8.29882
 Alpha virt. eigenvalues --    8.37646   8.37646   8.40000   8.40000   8.48149
 Alpha virt. eigenvalues --    8.50744   8.51109   8.51109   8.57388   8.57388
 Alpha virt. eigenvalues --    8.63091   8.69874   8.82048   8.82048   8.88472
 Alpha virt. eigenvalues --    8.91999   8.91999   8.97669   8.97669   9.03431
 Alpha virt. eigenvalues --    9.03431   9.03897   9.11138   9.11385   9.11385
 Alpha virt. eigenvalues --    9.14183   9.15996   9.28920   9.34968   9.34968
 Alpha virt. eigenvalues --    9.45908   9.46498   9.47468   9.47468   9.62006
 Alpha virt. eigenvalues --    9.62006   9.66232   9.70512   9.70512   9.71881
 Alpha virt. eigenvalues --    9.81931   9.90328   9.90328  10.01773  10.01773
 Alpha virt. eigenvalues --   10.11599  10.30576  10.33755  10.33755  10.55887
 Alpha virt. eigenvalues --   10.55887  10.84146  10.94393  10.94393  12.70423
 Alpha virt. eigenvalues --   12.82789  12.82789  12.94950  13.28156  13.28156
 Alpha virt. eigenvalues --   28.97101  28.98359  28.98359  29.02164  29.02164
 Alpha virt. eigenvalues --   29.21709 146.47266 146.49011 146.49011 146.52039
 Alpha virt. eigenvalues --  146.52039 146.80945
          Condensed to atoms (all electrons):
               1          2          3          4          5          6
     1  C    5.469649   0.178044   0.178044   0.370413  -0.064225  -0.064225
     2  C    0.178044   5.469649   0.178044  -0.064225   0.370413  -0.064225
     3  C    0.178044   0.178044   5.469649  -0.064225  -0.064225   0.370413
     4  C    0.370413  -0.064225  -0.064225   5.469649   0.178044   0.178044
     5  C   -0.064225   0.370413  -0.064225   0.178044   5.469649   0.178044
     6  C   -0.064225  -0.064225   0.370413   0.178044   0.178044   5.469649
     7  H   -0.038299   0.000844   0.000844   0.339304  -0.024452  -0.024452
     8  H    0.339304  -0.024452  -0.024452  -0.038299   0.000844   0.000844
     9  H   -0.024452  -0.024452   0.339304   0.000844   0.000844  -0.038299
    10  H    0.000844   0.000844  -0.038299  -0.024452  -0.024452   0.339304
    11  H    0.000844  -0.038299   0.000844  -0.024452   0.339304  -0.024452
    12  H   -0.024452   0.339304  -0.024452   0.000844  -0.038299   0.000844
               7          8          9         10         11         12
     1  C   -0.038299   0.339304  -0.024452   0.000844   0.000844  -0.024452
     2  C    0.000844  -0.024452  -0.024452   0.000844  -0.038299   0.339304
     3  C    0.000844  -0.024452   0.339304  -0.038299   0.000844  -0.024452
     4  C    0.339304  -0.038299   0.000844  -0.024452  -0.024452   0.000844
     5  C   -0.024452   0.000844   0.000844  -0.024452   0.339304  -0.038299
     6  C   -0.024452   0.000844  -0.038299   0.339304  -0.024452   0.000844
     7  H    0.392951   0.009552   0.001815   0.009292   0.009292   0.001815
     8  H    0.009552   0.392951   0.009292   0.001815   0.001815   0.009292
     9  H    0.001815   0.009292   0.392951   0.009552   0.001815   0.009292
    10  H    0.009292   0.001815   0.009552   0.392951   0.009292   0.001815
    11  H    0.009292   0.001815   0.001815   0.009292   0.392951   0.009552
    12  H    0.001815   0.009292   0.009292   0.001815   0.009552   0.392951
 Mulliken charges:
               1
     1  C   -0.321492
     2  C   -0.321492
     3  C   -0.321492
     4  C   -0.321492
     5  C   -0.321492
     6  C   -0.321492
     7  H    0.321492
     8  H    0.321492
     9  H    0.321492
    10  H    0.321492
    11  H    0.321492
    12  H    0.321492
 Sum of Mulliken charges =  -0.00000
 Mulliken charges with hydrogens summed into heavy atoms:
               1
     1  C   -0.000000
     2  C   -0.000000
     3  C   -0.000000
     4  C   -0.000000
     5  C   -0.000000
     6  C   -0.000000
 Electronic spatial extent (au):  <R**2>=            362.9713
 Charge=             -0.0000 electrons
 Dipole moment (field-independent basis, Debye):
    X=              0.0000    Y=              0.0000    Z=             -0.0000  Tot=              0.0000
 Quadrupole moment (field-independent basis, Debye-Ang):
   XX=            -35.6954   YY=            -35.6954   ZZ=            -33.1334
   XY=             -0.0000   XZ=              0.0000   YZ=             -0.0000
 Traceless Quadrupole moment (field-independent basis, Debye-Ang):
   XX=             -0.8540   YY=             -0.8540   ZZ=              1.7080
   XY=             -0.0000   XZ=              0.0000   YZ=             -0.0000
 Octapole moment (field-independent basis, Debye-Ang**2):
  XXX=              0.0000  YYY=              4.8168  ZZZ=              0.0000  XYY=              0.0000
  XXY=             -4.8168  XXZ=              0.0000  XZZ=              0.0000  YZZ=              0.0000
  YYZ=             -0.0000  XYZ=             -0.0000
 Hexadecapole moment (field-independent basis, Debye-Ang**3):
 XXXX=           -147.3841 YYYY=           -147.3841 ZZZZ=           -204.2212 XXXY=              0.0000
 XXXZ=              0.0000 YYYX=              0.0000 YYYZ=              0.0000 ZZZX=             -0.0000
 ZZZY=              0.0000 XXYY=            -49.1280 XXZZ=            -54.6321 YYZZ=            -54.6321
 XXYZ=              0.0000 YYXZ=              0.0000 ZZXY=              0.0000
 N-N= 2.205203297619D+02 E-N=-9.789130523898D+02  KE= 2.309302433607D+02
 PrsmSu:  requested number of processors reduced to:  20 ShMem   1 Linda.
 No NMR shielding tensors so no spin-rotation constants.
 Leave Link  601 at Sat Apr 17 09:44:32 2021, MaxMem=   104857600 cpu:            1026.6 elap:              22.1
 (Enter /s/ls4/users/knvvv/bin/g16sse/l801.exe)
 DoSCS=F DFT=T ScalE2(SS,OS)=  1.000000  1.000000
 Range of M.O.s used for correlation:     1   568
 NBasis=   576 NAE=    21 NBE=    21 NFC=     0 NFV=     0
 NROrb=    568 NOA=    21 NOB=    21 NVA=   547 NVB=   547

 **** Warning!!: The largest alpha MO coefficient is  0.74131407D+02

 Leave Link  801 at Sat Apr 17 09:44:32 2021, MaxMem=   104857600 cpu:               4.8 elap:               0.1
 (Enter /s/ls4/users/knvvv/bin/g16sse/l914.exe)
 RHF ground state
 Doing stability rather than CIS.
 Two-electron integrals replicated using symmetry.
 MDV=   104857600 DFT=T DoStab=T Mixed=T DoRPA=F DoScal=F NonHer=F
 Making orbital integer symmetry assigments:
 Orbital symmetries:
       Occupied  (A1') (A2") (E') (E') (E") (E") (A1') (A2") (E')
                 (E') (A1') (E") (E") (A1') (A2") (E') (E') (E')
                 (E') (E") (E")
       Virtual   (A1') (A2") (E') (E') (E") (E") (A1') (A2') (A2")
                 (E') (E') (A1') (E') (E') (E") (E") (A2") (E')
                 (E') (A2') (E") (E") (A1") (A1') (A2") (E") (E")
                 (E') (E') (A2") (A1') (E') (E') (A1') (A1") (E")
                 (E") (A2') (E') (E') (E") (E") (A2") (A1') (E")
                 (E") (E') (E') (E') (E') (A2") (A1') (E') (E')
                 (E") (E") (E') (E') (E") (E") (A1') (E") (E")
                 (A1") (E") (E") (E') (E') (A2") (A2') (A1') (A2")
                 (E') (E') (A1") (E') (E') (A2') (E") (E") (A2")
                 (E') (E') (E") (E") (A2") (E") (E") (A1') (E")
                 (E") (E') (E') (A1') (A2") (A2') (A1') (A1") (E')
                 (E') (E') (E') (E") (E") (A1') (E") (E") (E')
                 (E') (A2") (E') (E') (E") (E") (E") (E") (A1')
                 (E') (E') (A2") (A2') (E") (E") (E') (E') (A1")
                 (A1') (E") (E") (A2") (E') (E') (A2') (E') (E')
                 (A2") (E") (E") (A1') (A1") (A2') (E') (E') (E")
                 (E") (E") (E") (A2") (A1') (A2") (E") (E") (A1")
                 (E') (E') (E") (E") (A1') (E') (E') (A1') (E')
                 (E') (A2") (A1') (A1') (E") (E") (E') (E') (A2")
                 (E") (E") (E') (E') (A1') (E") (E") (E') (E')
                 (A2') (A2") (A2') (E') (E') (E") (E") (A1") (A1')
                 (A2") (E') (E') (A2") (E') (E') (E") (E") (E')
                 (E') (A2') (A1') (E") (E") (E') (E') (A1') (A1")
                 (A2") (A2') (E") (E") (A2") (E') (E') (E") (E")
                 (E") (E") (E') (E') (E') (E') (A1") (A1') (A2')
                 (A1") (E") (E") (E") (E") (E") (E") (E') (E')
                 (A2") (A1") (A1') (E') (E') (A2") (E') (E') (A1')
                 (E') (E') (E") (E") (A1') (E") (E") (A2") (A2')
                 (E") (E") (E') (E') (A2") (E') (E') (E") (E")
                 (A1') (E') (E') (A2") (E") (E") (A2') (E") (E")
                 (A1") (E") (E") (A1") (E') (E') (A2") (A1') (E')
                 (E') (E") (E") (A2") (A1') (A1") (A2') (A1') (E')
                 (E') (E") (E") (E") (E") (A2') (A2") (E') (E')
                 (E') (E') (A2") (E") (E") (A1') (E') (E') (A1')
                 (A1') (E") (E") (A1") (E') (E') (A2") (E") (E")
                 (A2') (E') (E') (E') (E') (A1') (E") (E") (A2")
                 (A1') (E') (E') (A2") (E") (E") (E') (E') (E')
                 (E') (E") (E") (A2') (A1") (A2") (E") (E") (A1')
                 (E') (E') (E") (E") (A1") (E') (E') (E') (E')
                 (A2') (E") (E") (A1') (A2") (E") (E") (A2") (E')
                 (E') (A2') (E") (E") (A2") (A1') (A2') (E") (E")
                 (E') (E') (A1") (E') (E') (A1') (E") (E") (E')
                 (E') (A1") (E") (E") (A1") (E') (E') (A2") (A2')
                 (E") (E") (A1') (A2') (E') (E') (E") (E") (E")
                 (E") (E') (E') (A1') (A2") (E') (E') (A1") (A2")
                 (E') (E') (E") (E") (A1') (A2') (A1") (E") (E")
                 (A2") (E") (E") (E') (E') (A2') (A1') (E") (E")
                 (A2") (E') (E') (E") (E") (E') (E') (A1') (A2")
                 (A1") (E') (E') (A1') (E') (E') (E") (E") (A1")
                 (E') (E') (E") (E") (A2") (A2') (E") (E") (E')
                 (E') (A1') (E") (E") (A2') (E') (E') (A2") (A1')
                 (E") (E") (E") (E") (A1") (E') (E') (A2") (E")
                 (E") (E') (E') (A2") (A1") (E") (E") (E') (E')
                 (E") (E") (A2') (A1') (E") (E") (E') (E') (A1")
                 (A1') (E') (E') (A2") (E") (E") (E') (E') (E")
                 (E") (A2') (A1') (E") (E") (A2") (A1") (A2') (E")
                 (E") (A1") (A2") (E') (E') (E') (E') (A1') (E")
                 (E") (A2") (A1') (E') (E') (E") (E") (A2') (A2")
                 (E') (E') (E") (E") (A1") (E") (E") (A1') (E')
                 (E') (A2") (E") (E") (A1') (E") (E") (E') (E')
                 (A2") (A1') (E") (E") (E') (E') (A2")
    24 initial guesses have been made.
 Convergence on wavefunction:    0.001000000000000
 Davidson Disk Diagonalization:  ConvIn= 1.00D-03 SkipCon=T Conv= 1.00D-03.
 Max sub-space:  2000 roots to seek:    24 dimension of matrix:        22974
 Iteration     1 Dimension    24 NMult     0 NNew     24
 Estimated number of processors is:   14
 CISAX will form     1 AO SS matrices at one time.
 NMat=     1 NSing=     1 JSym2X= 2.
 FoFJK:  IHMeth= 1 ICntrl=       0 DoSepK=F KAlg= 0 I1Cent=           0 FoldK=F
 IRaf= 980000000 NMat=       1 IRICut=       1 DoRegI=T DoRafI=F ISym2E= 2 IDoP0=0 IntGTp=1.
 FoFCou: FMM=F IPFlag=           0 FMFlag=      100000 FMFlg1=           0
         NFxFlg=           0 DoJE=F BraDBF=F KetDBF=F FulRan=T
         wScrn=  0.000000 ICntrl=         0 IOpCl=  0 I1Cent=           0 NGrid=           0
         NMat0=    1 NMatS0=      1 NMatT0=    0 NMatD0=    1 NMtDS0=    0 NMtDT0=    0
 Integrals replicated using symmetry in FoFCou.
 CoulSu:  requested number of processors reduced to:  16 ShMem   1 Linda.
 CalDSu:  requested number of processors reduced to:  42 ShMem   1 Linda.
 NMat=     1 NSing=     1 JSym2X= 2.
 CoulSu:  requested number of processors reduced to:  16 ShMem   1 Linda.
 CalDSu:  requested number of processors reduced to:  42 ShMem   1 Linda.
 NMat=     1 NSing=     1 JSym2X= 2.
 CoulSu:  requested number of processors reduced to:  16 ShMem   1 Linda.
 CalDSu:  requested number of processors reduced to:  42 ShMem   1 Linda.
 NMat=     1 NSing=     1 JSym2X= 2.
 CoulSu:  requested number of processors reduced to:  16 ShMem   1 Linda.
 CalDSu:  requested number of processors reduced to:  42 ShMem   1 Linda.
 NMat=     1 NSing=     1 JSym2X= 2.
 CoulSu:  requested number of processors reduced to:  16 ShMem   1 Linda.
 CalDSu:  requested number of processors reduced to:  42 ShMem   1 Linda.
 NMat=     1 NSing=     1 JSym2X= 2.
 CoulSu:  requested number of processors reduced to:  16 ShMem   1 Linda.
 CalDSu:  requested number of processors reduced to:  42 ShMem   1 Linda.
 NMat=     1 NSing=     1 JSym2X= 2.
 CoulSu:  requested number of processors reduced to:  16 ShMem   1 Linda.
 CalDSu:  requested number of processors reduced to:  42 ShMem   1 Linda.
 NMat=     1 NSing=     1 JSym2X= 2.
 CoulSu:  requested number of processors reduced to:  16 ShMem   1 Linda.
 CalDSu:  requested number of processors reduced to:  42 ShMem   1 Linda.
 NMat=     1 NSing=     1 JSym2X= 2.
 CoulSu:  requested number of processors reduced to:  16 ShMem   1 Linda.
 CalDSu:  requested number of processors reduced to:  42 ShMem   1 Linda.
 NMat=     1 NSing=     1 JSym2X= 2.
 CoulSu:  requested number of processors reduced to:  16 ShMem   1 Linda.
 CalDSu:  requested number of processors reduced to:  42 ShMem   1 Linda.
 NMat=     1 NSing=     1 JSym2X= 2.
 CoulSu:  requested number of processors reduced to:  16 ShMem   1 Linda.
 CalDSu:  requested number of processors reduced to:  42 ShMem   1 Linda.
 NMat=     1 NSing=     1 JSym2X= 2.
 CoulSu:  requested number of processors reduced to:  16 ShMem   1 Linda.
 CalDSu:  requested number of processors reduced to:  42 ShMem   1 Linda.
 NMat=     1 NSing=     0 JSym2X= 2.
 CoulSu:  requested number of processors reduced to:  16 ShMem   1 Linda.
 CalDSu:  requested number of processors reduced to:  42 ShMem   1 Linda.
 NMat=     1 NSing=     0 JSym2X= 2.
 CoulSu:  requested number of processors reduced to:  16 ShMem   1 Linda.
 CalDSu:  requested number of processors reduced to:  42 ShMem   1 Linda.
 NMat=     1 NSing=     0 JSym2X= 2.
 CoulSu:  requested number of processors reduced to:  16 ShMem   1 Linda.
 CalDSu:  requested number of processors reduced to:  42 ShMem   1 Linda.
 NMat=     1 NSing=     0 JSym2X= 2.
 CoulSu:  requested number of processors reduced to:  16 ShMem   1 Linda.
 CalDSu:  requested number of processors reduced to:  42 ShMem   1 Linda.
 NMat=     1 NSing=     0 JSym2X= 2.
 CoulSu:  requested number of processors reduced to:  16 ShMem   1 Linda.
 CalDSu:  requested number of processors reduced to:  42 ShMem   1 Linda.
 NMat=     1 NSing=     0 JSym2X= 2.
 CoulSu:  requested number of processors reduced to:  16 ShMem   1 Linda.
 CalDSu:  requested number of processors reduced to:  42 ShMem   1 Linda.
 NMat=     1 NSing=     0 JSym2X= 2.
 CoulSu:  requested number of processors reduced to:  16 ShMem   1 Linda.
 CalDSu:  requested number of processors reduced to:  42 ShMem   1 Linda.
 NMat=     1 NSing=     0 JSym2X= 2.
 CoulSu:  requested number of processors reduced to:  16 ShMem   1 Linda.
 CalDSu:  requested number of processors reduced to:  42 ShMem   1 Linda.
 NMat=     1 NSing=     0 JSym2X= 2.
 CoulSu:  requested number of processors reduced to:  16 ShMem   1 Linda.
 CalDSu:  requested number of processors reduced to:  42 ShMem   1 Linda.
 NMat=     1 NSing=     0 JSym2X= 2.
 CoulSu:  requested number of processors reduced to:  16 ShMem   1 Linda.
 CalDSu:  requested number of processors reduced to:  42 ShMem   1 Linda.
 NMat=     1 NSing=     0 JSym2X= 2.
 CoulSu:  requested number of processors reduced to:  16 ShMem   1 Linda.
 CalDSu:  requested number of processors reduced to:  42 ShMem   1 Linda.
 NMat=     1 NSing=     0 JSym2X= 2.
 CoulSu:  requested number of processors reduced to:  16 ShMem   1 Linda.
 CalDSu:  requested number of processors reduced to:  42 ShMem   1 Linda.
 New state      1 was old state      2
 Excitation Energies [eV] at current iteration:
 Root      1 :     6.173213213336440
 Root      2 :     6.173276283938662
 Root      3 :     6.188887947867541
 Root      4 :     6.188912115808173
 Root      5 :     6.347447336813428
 Root      6 :     6.347449446713495
 Root      7 :     6.421629588752886
 Root      8 :     6.421633667364474
 Root      9 :     6.451302058230675
 Root     10 :     6.478739881094430
 Root     11 :     6.482887373396122
 Root     12 :     6.495733053478499
 Root     13 :     6.495741241371331
 Root     14 :     6.531224688553728
 Root     15 :     6.531232435585554
 Root     16 :     6.550910287325122
 Root     17 :     7.306301771590467
 Root     18 :     7.321525208253878
 Root     19 :     7.321529700829548
 Root     20 :     7.340130346971222
 Root     21 :     7.364497448423386
 Root     22 :     7.398484834236489
 Root     23 :     7.398485501279144
 Root     24 :     7.409558576932133
 Iteration     2 Dimension    48 NMult    24 NNew     24
 Estimated number of processors is:   14
 CISAX will form     1 AO SS matrices at one time.
 NMat=     1 NSing=     1 JSym2X= 2.
 CoulSu:  requested number of processors reduced to:  16 ShMem   1 Linda.
 CalDSu:  requested number of processors reduced to:  42 ShMem   1 Linda.
 NMat=     1 NSing=     1 JSym2X= 2.
 CoulSu:  requested number of processors reduced to:  16 ShMem   1 Linda.
 CalDSu:  requested number of processors reduced to:  42 ShMem   1 Linda.
 NMat=     1 NSing=     1 JSym2X= 2.
 CoulSu:  requested number of processors reduced to:  16 ShMem   1 Linda.
 CalDSu:  requested number of processors reduced to:  42 ShMem   1 Linda.
 NMat=     1 NSing=     1 JSym2X= 2.
 CoulSu:  requested number of processors reduced to:  16 ShMem   1 Linda.
 CalDSu:  requested number of processors reduced to:  42 ShMem   1 Linda.
 NMat=     1 NSing=     1 JSym2X= 2.
 CoulSu:  requested number of processors reduced to:  16 ShMem   1 Linda.
 CalDSu:  requested number of processors reduced to:  42 ShMem   1 Linda.
 NMat=     1 NSing=     1 JSym2X= 2.
 CoulSu:  requested number of processors reduced to:  16 ShMem   1 Linda.
 CalDSu:  requested number of processors reduced to:  42 ShMem   1 Linda.
 NMat=     1 NSing=     1 JSym2X= 2.
 CoulSu:  requested number of processors reduced to:  16 ShMem   1 Linda.
 CalDSu:  requested number of processors reduced to:  42 ShMem   1 Linda.
 NMat=     1 NSing=     1 JSym2X= 2.
 CoulSu:  requested number of processors reduced to:  16 ShMem   1 Linda.
 CalDSu:  requested number of processors reduced to:  42 ShMem   1 Linda.
 NMat=     1 NSing=     1 JSym2X= 2.
 CoulSu:  requested number of processors reduced to:  16 ShMem   1 Linda.
 CalDSu:  requested number of processors reduced to:  42 ShMem   1 Linda.
 NMat=     1 NSing=     1 JSym2X= 2.
 CoulSu:  requested number of processors reduced to:  16 ShMem   1 Linda.
 CalDSu:  requested number of processors reduced to:  42 ShMem   1 Linda.
 NMat=     1 NSing=     1 JSym2X= 2.
 CoulSu:  requested number of processors reduced to:  16 ShMem   1 Linda.
 CalDSu:  requested number of processors reduced to:  42 ShMem   1 Linda.
 NMat=     1 NSing=     1 JSym2X= 2.
 CoulSu:  requested number of processors reduced to:  16 ShMem   1 Linda.
 CalDSu:  requested number of processors reduced to:  42 ShMem   1 Linda.
 NMat=     1 NSing=     0 JSym2X= 2.
 CoulSu:  requested number of processors reduced to:  16 ShMem   1 Linda.
 CalDSu:  requested number of processors reduced to:  42 ShMem   1 Linda.
 NMat=     1 NSing=     0 JSym2X= 2.
 CoulSu:  requested number of processors reduced to:  16 ShMem   1 Linda.
 CalDSu:  requested number of processors reduced to:  42 ShMem   1 Linda.
 NMat=     1 NSing=     0 JSym2X= 2.
 CoulSu:  requested number of processors reduced to:  16 ShMem   1 Linda.
 CalDSu:  requested number of processors reduced to:  42 ShMem   1 Linda.
 NMat=     1 NSing=     0 JSym2X= 2.
 CoulSu:  requested number of processors reduced to:  16 ShMem   1 Linda.
 CalDSu:  requested number of processors reduced to:  42 ShMem   1 Linda.
 NMat=     1 NSing=     0 JSym2X= 2.
 CoulSu:  requested number of processors reduced to:  16 ShMem   1 Linda.
 CalDSu:  requested number of processors reduced to:  42 ShMem   1 Linda.
 NMat=     1 NSing=     0 JSym2X= 2.
 CoulSu:  requested number of processors reduced to:  16 ShMem   1 Linda.
 CalDSu:  requested number of processors reduced to:  42 ShMem   1 Linda.
 NMat=     1 NSing=     0 JSym2X= 2.
 CoulSu:  requested number of processors reduced to:  16 ShMem   1 Linda.
 CalDSu:  requested number of processors reduced to:  42 ShMem   1 Linda.
 NMat=     1 NSing=     0 JSym2X= 2.
 CoulSu:  requested number of processors reduced to:  16 ShMem   1 Linda.
 CalDSu:  requested number of processors reduced to:  42 ShMem   1 Linda.
 NMat=     1 NSing=     0 JSym2X= 2.
 CoulSu:  requested number of processors reduced to:  16 ShMem   1 Linda.
 CalDSu:  requested number of processors reduced to:  42 ShMem   1 Linda.
 NMat=     1 NSing=     0 JSym2X= 2.
 CoulSu:  requested number of processors reduced to:  16 ShMem   1 Linda.
 CalDSu:  requested number of processors reduced to:  42 ShMem   1 Linda.
 NMat=     1 NSing=     0 JSym2X= 2.
 CoulSu:  requested number of processors reduced to:  16 ShMem   1 Linda.
 CalDSu:  requested number of processors reduced to:  42 ShMem   1 Linda.
 NMat=     1 NSing=     0 JSym2X= 2.
 CoulSu:  requested number of processors reduced to:  16 ShMem   1 Linda.
 CalDSu:  requested number of processors reduced to:  42 ShMem   1 Linda.
 Root      1 not converged, maximum delta is    0.045512239852656
 Excitation Energies [eV] at current iteration:
 Root      1 :     6.037767889185704   Change is   -0.135445324150735
 Root      2 :     6.037850597067460   Change is   -0.135425686871203
 Root      3 :     6.038266579007417   Change is   -0.309180757806010
 Root      4 :     6.038280418037787   Change is   -0.309169028675708
 Root      5 :     6.103160765287289   Change is   -0.085727182580253
 Root      6 :     6.103199873625226   Change is   -0.085712242182948
 Root      7 :     6.255998615988985   Change is   -0.165630972763901
 Root      8 :     6.256006809900482   Change is   -0.165626857463992
 Root      9 :     6.267965700504722   Change is   -0.183336357725954
 Root     10 :     6.284348717238284   Change is   -0.198538656157837
 Root     11 :     6.344203639465111   Change is   -0.151529414013389
 Root     12 :     6.344217222860919   Change is   -0.151524018510412
 Root     13 :     6.355918220544043   Change is   -0.122821660550389
 Root     14 :     6.416119893567000   Change is   -0.115104794986727
 Root     15 :     6.416133958392403   Change is   -0.115098477193151
 Root     16 :     6.456668846362376   Change is   -0.094241440962746
 Root     17 :     7.167926015623974   Change is   -0.138375755966493
 Root     18 :     7.220196019139165   Change is   -0.101329189114713
 Root     19 :     7.220198687114963   Change is   -0.101331013714585
 Root     20 :     7.233734735520911   Change is   -0.106395611450311
 Root     21 :     7.269834404374235   Change is   -0.094663044049151
 Root     22 :     7.315971002640720   Change is   -0.082513831595769
 Root     23 :     7.315971973344592   Change is   -0.082513527934553
 Root     24 :     7.320596586783469   Change is   -0.088961990148663
 Iteration     3 Dimension    54 NMult    48 NNew      6
 Estimated number of processors is:   14
 CISAX will form     1 AO SS matrices at one time.
 NMat=     1 NSing=     1 JSym2X= 2.
 CoulSu:  requested number of processors reduced to:  16 ShMem   1 Linda.
 CalDSu:  requested number of processors reduced to:  42 ShMem   1 Linda.
 NMat=     1 NSing=     1 JSym2X= 2.
 CoulSu:  requested number of processors reduced to:  16 ShMem   1 Linda.
 CalDSu:  requested number of processors reduced to:  42 ShMem   1 Linda.
 NMat=     1 NSing=     1 JSym2X= 2.
 CoulSu:  requested number of processors reduced to:  16 ShMem   1 Linda.
 CalDSu:  requested number of processors reduced to:  42 ShMem   1 Linda.
 NMat=     1 NSing=     0 JSym2X= 2.
 CoulSu:  requested number of processors reduced to:  16 ShMem   1 Linda.
 CalDSu:  requested number of processors reduced to:  42 ShMem   1 Linda.
 NMat=     1 NSing=     0 JSym2X= 2.
 CoulSu:  requested number of processors reduced to:  16 ShMem   1 Linda.
 CalDSu:  requested number of processors reduced to:  42 ShMem   1 Linda.
 NMat=     1 NSing=     0 JSym2X= 2.
 CoulSu:  requested number of processors reduced to:  16 ShMem   1 Linda.
 CalDSu:  requested number of processors reduced to:  42 ShMem   1 Linda.
 New state      1 was old state      3
 Root      1 not converged, maximum delta is    0.100356131603264
 Excitation Energies [eV] at current iteration:
 Root      1 :     5.950812853335168   Change is   -0.087453725672250
 Root      2 :     6.011767714971671   Change is   -0.026000174214034
 Root      3 :     6.011838189069312   Change is   -0.026012407998147
 Root      4 :     6.094361365069940   Change is   -0.008799400217349
 Root      5 :     6.094362393639315   Change is   -0.008837479985910
 Root      6 :     6.199413201935838   Change is   -0.056585414053148
 Iteration     4 Dimension    60 NMult    54 NNew      6
 Estimated number of processors is:   14
 CISAX will form     1 AO SS matrices at one time.
 NMat=     1 NSing=     1 JSym2X= 2.
 CoulSu:  requested number of processors reduced to:  16 ShMem   1 Linda.
 CalDSu:  requested number of processors reduced to:  42 ShMem   1 Linda.
 NMat=     1 NSing=     1 JSym2X= 2.
 CoulSu:  requested number of processors reduced to:  16 ShMem   1 Linda.
 CalDSu:  requested number of processors reduced to:  42 ShMem   1 Linda.
 NMat=     1 NSing=     1 JSym2X= 2.
 CoulSu:  requested number of processors reduced to:  16 ShMem   1 Linda.
 CalDSu:  requested number of processors reduced to:  42 ShMem   1 Linda.
 NMat=     1 NSing=     0 JSym2X= 2.
 CoulSu:  requested number of processors reduced to:  16 ShMem   1 Linda.
 CalDSu:  requested number of processors reduced to:  42 ShMem   1 Linda.
 NMat=     1 NSing=     0 JSym2X= 2.
 CoulSu:  requested number of processors reduced to:  16 ShMem   1 Linda.
 CalDSu:  requested number of processors reduced to:  42 ShMem   1 Linda.
 NMat=     1 NSing=     0 JSym2X= 2.
 CoulSu:  requested number of processors reduced to:  16 ShMem   1 Linda.
 CalDSu:  requested number of processors reduced to:  42 ShMem   1 Linda.
 Root      1 not converged, maximum delta is    0.025326526643281
 Excitation Energies [eV] at current iteration:
 Root      1 :     5.936467466828041   Change is   -0.014345386507126
 Root      2 :     5.952346248883210   Change is   -0.059421466088460
 Root      3 :     5.952362706081872   Change is   -0.059475482987441
 Root      4 :     6.092408094161909   Change is   -0.001953270908030
 Root      5 :     6.092443722994257   Change is   -0.001918670645059
 Root      6 :     6.185484734198603   Change is   -0.013928467737234
 Iteration     5 Dimension    66 NMult    60 NNew      6
 Estimated number of processors is:   14
 CISAX will form     1 AO SS matrices at one time.
 NMat=     1 NSing=     1 JSym2X= 2.
 CoulSu:  requested number of processors reduced to:  16 ShMem   1 Linda.
 CalDSu:  requested number of processors reduced to:  42 ShMem   1 Linda.
 NMat=     1 NSing=     1 JSym2X= 2.
 CoulSu:  requested number of processors reduced to:  16 ShMem   1 Linda.
 CalDSu:  requested number of processors reduced to:  42 ShMem   1 Linda.
 NMat=     1 NSing=     1 JSym2X= 2.
 CoulSu:  requested number of processors reduced to:  16 ShMem   1 Linda.
 CalDSu:  requested number of processors reduced to:  42 ShMem   1 Linda.
 NMat=     1 NSing=     0 JSym2X= 2.
 CoulSu:  requested number of processors reduced to:  16 ShMem   1 Linda.
 CalDSu:  requested number of processors reduced to:  42 ShMem   1 Linda.
 NMat=     1 NSing=     0 JSym2X= 2.
 CoulSu:  requested number of processors reduced to:  16 ShMem   1 Linda.
 CalDSu:  requested number of processors reduced to:  42 ShMem   1 Linda.
 NMat=     1 NSing=     0 JSym2X= 2.
 CoulSu:  requested number of processors reduced to:  16 ShMem   1 Linda.
 CalDSu:  requested number of processors reduced to:  42 ShMem   1 Linda.
 New state      1 was old state      3
 Root      1 not converged, maximum delta is    0.336230275875205
 Excitation Energies [eV] at current iteration:
 Root      1 :     5.732359732693459   Change is   -0.220002973388413
 Root      2 :     5.732364523194290   Change is   -0.219981725688920
 Root      3 :     5.935536729993900   Change is   -0.000930736834142
 Root      4 :     6.092108081806775   Change is   -0.000300012355134
 Root      5 :     6.092148089538388   Change is   -0.000295633455869
 Root      6 :     6.176363787200637   Change is   -0.009120946997967
 Iteration     6 Dimension    72 NMult    66 NNew      6
 Estimated number of processors is:   14
 CISAX will form     1 AO SS matrices at one time.
 NMat=     1 NSing=     1 JSym2X= 2.
 CoulSu:  requested number of processors reduced to:  16 ShMem   1 Linda.
 CalDSu:  requested number of processors reduced to:  42 ShMem   1 Linda.
 NMat=     1 NSing=     1 JSym2X= 2.
 CoulSu:  requested number of processors reduced to:  16 ShMem   1 Linda.
 CalDSu:  requested number of processors reduced to:  42 ShMem   1 Linda.
 NMat=     1 NSing=     1 JSym2X= 2.
 CoulSu:  requested number of processors reduced to:  16 ShMem   1 Linda.
 CalDSu:  requested number of processors reduced to:  42 ShMem   1 Linda.
 NMat=     1 NSing=     0 JSym2X= 2.
 CoulSu:  requested number of processors reduced to:  16 ShMem   1 Linda.
 CalDSu:  requested number of processors reduced to:  42 ShMem   1 Linda.
 NMat=     1 NSing=     0 JSym2X= 2.
 CoulSu:  requested number of processors reduced to:  16 ShMem   1 Linda.
 CalDSu:  requested number of processors reduced to:  42 ShMem   1 Linda.
 NMat=     1 NSing=     0 JSym2X= 2.
 CoulSu:  requested number of processors reduced to:  16 ShMem   1 Linda.
 CalDSu:  requested number of processors reduced to:  42 ShMem   1 Linda.
 New state      1 was old state      2
 Root      1 not converged, maximum delta is    0.137116489817429
 Excitation Energies [eV] at current iteration:
 Root      1 :     5.694417847873360   Change is   -0.037946675320930
 Root      2 :     5.694443006265835   Change is   -0.037916726427625
 Root      3 :     5.935476415073365   Change is   -0.000060314920535
 Root      4 :     6.092079736392615   Change is   -0.000028345414160
 Root      5 :     6.092120245386978   Change is   -0.000027844151410
 Root      6 :     6.175422783080754   Change is   -0.000941004119882
 Iteration     7 Dimension    78 NMult    72 NNew      6
 Estimated number of processors is:   14
 CISAX will form     1 AO SS matrices at one time.
 NMat=     1 NSing=     1 JSym2X= 2.
 CoulSu:  requested number of processors reduced to:  16 ShMem   1 Linda.
 CalDSu:  requested number of processors reduced to:  42 ShMem   1 Linda.
 NMat=     1 NSing=     1 JSym2X= 2.
 CoulSu:  requested number of processors reduced to:  16 ShMem   1 Linda.
 CalDSu:  requested number of processors reduced to:  42 ShMem   1 Linda.
 NMat=     1 NSing=     1 JSym2X= 2.
 CoulSu:  requested number of processors reduced to:  16 ShMem   1 Linda.
 CalDSu:  requested number of processors reduced to:  42 ShMem   1 Linda.
 NMat=     1 NSing=     0 JSym2X= 2.
 CoulSu:  requested number of processors reduced to:  16 ShMem   1 Linda.
 CalDSu:  requested number of processors reduced to:  42 ShMem   1 Linda.
 NMat=     1 NSing=     0 JSym2X= 2.
 CoulSu:  requested number of processors reduced to:  16 ShMem   1 Linda.
 CalDSu:  requested number of processors reduced to:  42 ShMem   1 Linda.
 NMat=     1 NSing=     0 JSym2X= 2.
 CoulSu:  requested number of processors reduced to:  16 ShMem   1 Linda.
 CalDSu:  requested number of processors reduced to:  42 ShMem   1 Linda.
 Root      1 not converged, maximum delta is    0.008772695475291
 Excitation Energies [eV] at current iteration:
 Root      1 :     5.691380654027922   Change is   -0.003037193845439
 Root      2 :     5.691410866122448   Change is   -0.003032140143386
 Root      3 :     5.935469072128964   Change is   -0.000007342944401
 Root      4 :     6.092077541815974   Change is   -0.000002194576641
 Root      5 :     6.092118104149026   Change is   -0.000002141237953
 Root      6 :     6.175295220019243   Change is   -0.000127563061511
 Iteration     8 Dimension    84 NMult    78 NNew      6
 Estimated number of processors is:   14
 CISAX will form     1 AO SS matrices at one time.
 NMat=     1 NSing=     1 JSym2X= 2.
 CoulSu:  requested number of processors reduced to:  16 ShMem   1 Linda.
 CalDSu:  requested number of processors reduced to:  42 ShMem   1 Linda.
 NMat=     1 NSing=     1 JSym2X= 2.
 CoulSu:  requested number of processors reduced to:  16 ShMem   1 Linda.
 CalDSu:  requested number of processors reduced to:  42 ShMem   1 Linda.
 NMat=     1 NSing=     1 JSym2X= 2.
 CoulSu:  requested number of processors reduced to:  16 ShMem   1 Linda.
 CalDSu:  requested number of processors reduced to:  42 ShMem   1 Linda.
 NMat=     1 NSing=     0 JSym2X= 2.
 CoulSu:  requested number of processors reduced to:  16 ShMem   1 Linda.
 CalDSu:  requested number of processors reduced to:  42 ShMem   1 Linda.
 NMat=     1 NSing=     0 JSym2X= 2.
 CoulSu:  requested number of processors reduced to:  16 ShMem   1 Linda.
 CalDSu:  requested number of processors reduced to:  42 ShMem   1 Linda.
 NMat=     1 NSing=     0 JSym2X= 2.
 CoulSu:  requested number of processors reduced to:  16 ShMem   1 Linda.
 CalDSu:  requested number of processors reduced to:  42 ShMem   1 Linda.
 Root      1 not converged, maximum delta is    0.002959964900933
 Excitation Energies [eV] at current iteration:
 Root      1 :     5.691039462658509   Change is   -0.000341191369413
 Root      2 :     5.691070495066919   Change is   -0.000340371055530
 Root      3 :     5.935466296671933   Change is   -0.000002775457031
 Root      4 :     6.092077332924930   Change is   -0.000000208891044
 Root      5 :     6.092117893148339   Change is   -0.000000211000686
 Root      6 :     6.175283666720872   Change is   -0.000011553298372
 Iteration     9 Dimension    90 NMult    84 NNew      6
 Estimated number of processors is:   14
 CISAX will form     1 AO SS matrices at one time.
 NMat=     1 NSing=     1 JSym2X= 2.
 CoulSu:  requested number of processors reduced to:  16 ShMem   1 Linda.
 CalDSu:  requested number of processors reduced to:  42 ShMem   1 Linda.
 NMat=     1 NSing=     1 JSym2X= 2.
 CoulSu:  requested number of processors reduced to:  16 ShMem   1 Linda.
 CalDSu:  requested number of processors reduced to:  42 ShMem   1 Linda.
 NMat=     1 NSing=     1 JSym2X= 2.
 CoulSu:  requested number of processors reduced to:  16 ShMem   1 Linda.
 CalDSu:  requested number of processors reduced to:  42 ShMem   1 Linda.
 NMat=     1 NSing=     0 JSym2X= 2.
 CoulSu:  requested number of processors reduced to:  16 ShMem   1 Linda.
 CalDSu:  requested number of processors reduced to:  42 ShMem   1 Linda.
[...]
 Stability analysis using <AA,BB:AA,BB> singles matrix:
 ***********************************************************************
 1PDM for each excited state written to RWF  633
 Ground to excited state transition densities written to RWF  633

 Eigenvectors of the stability matrix:
 
 Eigenvector   1:      Triplet-E"   Eigenvalue= 0.2091391  <S**2>=2.000
      20 -> 25         0.14299
      20 -> 29        -0.55983
      20 -> 41         0.20424
      21 -> 22         0.15944
      21 -> 24        -0.14311
 The wavefunction is stable under the perturbations considered.
 Leave Link  914 at Sat Apr 17 11:07:38 2021, MaxMem=   104857600 cpu:          162696.7 elap:            4985.5
 (Enter /s/ls4/users/knvvv/bin/g16sse/l508.exe)
 The wavefunction is already stable.
 Leave Link  508 at Sat Apr 17 11:07:38 2021, MaxMem=   104857600 cpu:               2.4 elap:               0.1
 (Enter /s/ls4/users/knvvv/bin/g16sse/l601.exe)
 Copying SCF densities to generalized density rwf, IOpCl= 0 IROHF=0.

 **********************************************************************

            Population analysis using the SCF density.

 **********************************************************************

 Orbital symmetries:
       Occupied  (A1') (A2") (E') (E') (E") (E") (A1') (A2") (E')
                 (E') (A1') (E") (E") (A1') (A2") (E') (E') (E')
                 (E') (E") (E")
       Virtual   (A1') (A2") (E') (E') (E") (E") (A1') (A2') (A2")
                 (E') (E') (A1') (E') (E') (E") (E") (A2") (E')
                 (E') (A2') (E") (E") (A1") (A1') (A2") (E") (E")
                 (E') (E') (A2") (A1') (E') (E') (A1') (A1") (E")
                 (E") (A2') (E') (E') (E") (E") (A2") (A1') (E")
                 (E") (E') (E') (E') (E') (A2") (A1') (E') (E')
                 (E") (E") (E') (E') (E") (E") (A1') (E") (E")
                 (A1") (E") (E") (E') (E') (A2") (A2') (A1') (A2")
                 (E') (E') (A1") (E') (E') (A2') (E") (E") (A2")
                 (E') (E') (E") (E") (A2") (E") (E") (A1') (E")
                 (E") (E') (E') (A1') (A2") (A2') (A1') (A1") (E')
                 (E') (E') (E') (E") (E") (A1') (E") (E") (E')
                 (E') (A2") (E') (E') (E") (E") (E") (E") (A1')
                 (E') (E') (A2") (A2') (E") (E") (E') (E') (A1")
                 (A1') (E") (E") (A2") (E') (E') (A2') (E') (E')
                 (A2") (E") (E") (A1') (A1") (A2') (E') (E') (E")
                 (E") (E") (E") (A2") (A1') (A2") (E") (E") (A1")
                 (E') (E') (E") (E") (A1') (E') (E') (A1') (E')
                 (E') (A2") (A1') (A1') (E") (E") (E') (E') (A2")
                 (E") (E") (E') (E') (A1') (E") (E") (E') (E')
                 (A2') (A2") (A2') (E') (E') (E") (E") (A1") (A1')
                 (A2") (E') (E') (A2") (E') (E') (E") (E") (E')
                 (E') (A2') (A1') (E") (E") (E') (E') (A1') (A1")
                 (A2") (A2') (E") (E") (A2") (E') (E') (E") (E")
                 (E") (E") (E') (E') (E') (E') (A1") (A1') (A2')
                 (A1") (E") (E") (E") (E") (E") (E") (E') (E')
                 (A2") (A1") (A1') (E') (E') (A2") (E') (E') (A1')
                 (E') (E') (E") (E") (A1') (E") (E") (A2") (A2')
                 (E") (E") (E') (E') (A2") (E') (E') (E") (E")
                 (A1') (E') (E') (A2") (E") (E") (A2') (E") (E")
                 (A1") (E") (E") (A1") (E') (E') (A2") (A1') (E')
                 (E') (E") (E") (A2") (A1') (A1") (A2') (A1') (E')
                 (E') (E") (E") (E") (E") (A2') (A2") (E') (E')
                 (E') (E') (A2") (E") (E") (A1') (E') (E') (A1')
                 (A1') (E") (E") (A1") (E') (E') (A2") (E") (E")
                 (A2') (E') (E') (E') (E') (A1') (E") (E") (A2")
                 (A1') (E') (E') (A2") (E") (E") (E') (E') (E')
                 (E') (E") (E") (A2') (A1") (A2") (E") (E") (A1')
                 (E') (E') (E") (E") (A1") (E') (E') (E') (E')
                 (A2') (E") (E") (A1') (A2") (E") (E") (A2") (E')
                 (E') (A2') (E") (E") (A2") (A1') (A2') (E") (E")
                 (E') (E') (A1") (E') (E') (A1') (E") (E") (E')
                 (E') (A1") (E") (E") (A1") (E') (E') (A2") (A2')
                 (E") (E") (A1') (A2') (E') (E') (E") (E") (E")
                 (E") (E') (E') (A1') (A2") (E') (E') (A1") (A2")
                 (E') (E') (E") (E") (A1') (A2') (A1") (E") (E")
                 (A2") (E") (E") (E') (E') (A2') (A1') (E") (E")
                 (A2") (E') (E') (E") (E") (E') (E') (A1') (A2")
                 (A1") (E') (E') (A1') (E') (E') (E") (E") (A1")
                 (E') (E') (E") (E") (A2") (A2') (E") (E") (E')
                 (E') (A1') (E") (E") (A2') (E') (E') (A2") (A1')
                 (E") (E") (E") (E") (A1") (E') (E') (A2") (E")
                 (E") (E') (E') (A2") (A1") (E") (E") (E') (E')
                 (E") (E") (A2') (A1') (E") (E") (E') (E') (A1")
                 (A1') (E') (E') (A2") (E") (E") (E') (E') (E")
                 (E") (A2') (A1') (E") (E") (A2") (A1") (A2') (E")
                 (E") (A1") (A2") (E') (E') (E') (E') (A1') (E")
                 (E") (A2") (A1') (E') (E') (E") (E") (A2') (A2")
                 (E') (E') (E") (E") (A1") (E") (E") (A1') (E')
                 (E') (A2") (E") (E") (A1') (E") (E") (E') (E')
                 (A2") (A1') (E") (E") (E') (E') (A2")
 The electronic state is 1-A1'.
 Alpha  occ. eigenvalues --  -10.55127 -10.55097 -10.55068 -10.55068 -10.55037
 Alpha  occ. eigenvalues --  -10.55037  -1.07549  -0.84080  -0.73007  -0.73007
 Alpha  occ. eigenvalues --   -0.61563  -0.59615  -0.59615  -0.50223  -0.49533
 Alpha  occ. eigenvalues --   -0.46438  -0.46438  -0.34954  -0.34954  -0.28317
 Alpha  occ. eigenvalues --   -0.28317
 Alpha virt. eigenvalues --    0.01762   0.02542   0.02774   0.02774   0.05385
 Alpha virt. eigenvalues --    0.05385   0.08569   0.09547   0.09771   0.10395
 Alpha virt. eigenvalues --    0.10395   0.13523   0.13732   0.13732   0.15199
 Alpha virt. eigenvalues --    0.15199   0.17930   0.18106   0.18106   0.19702
 Alpha virt. eigenvalues --    0.20434   0.20434   0.20486   0.21254   0.21331
 Alpha virt. eigenvalues --    0.21691   0.21691   0.23017   0.23017   0.24605
 Alpha virt. eigenvalues --    0.24749   0.26413   0.26413   0.27584   0.30617
 Alpha virt. eigenvalues --    0.31173   0.31173   0.31251   0.31932   0.31932
 Alpha virt. eigenvalues --    0.32396   0.32396   0.33708   0.34603   0.35038
 Alpha virt. eigenvalues --    0.35038   0.35339   0.35339   0.35518   0.35518
 Alpha virt. eigenvalues --    0.36855   0.37352   0.38556   0.38556   0.39902
 Alpha virt. eigenvalues --    0.39902   0.42176   0.42176   0.42803   0.42803
 Alpha virt. eigenvalues --    0.43222   0.44488   0.44488   0.45608   0.46737
 Alpha virt. eigenvalues --    0.46737   0.46768   0.46768   0.46919   0.48549
 Alpha virt. eigenvalues --    0.48674   0.51903   0.52310   0.52310   0.54048
 Alpha virt. eigenvalues --    0.54173   0.54173   0.55255   0.55282   0.55282
 Alpha virt. eigenvalues --    0.56765   0.59991   0.59991   0.60388   0.60388
 Alpha virt. eigenvalues --    0.62127   0.65275   0.65275   0.67433   0.73100
 Alpha virt. eigenvalues --    0.73100   0.75149   0.75149   0.76967   0.80003
 Alpha virt. eigenvalues --    0.82086   0.82763   0.84809   0.84899   0.84899
 Alpha virt. eigenvalues --    0.85999   0.85999   0.88507   0.88507   0.88733
 Alpha virt. eigenvalues --    0.88848   0.88848   0.94134   0.94134   0.96633
 Alpha virt. eigenvalues --    0.99892   0.99892   1.01868   1.01868   1.02827
 Alpha virt. eigenvalues --    1.02827   1.03612   1.05669   1.05669   1.07204
 Alpha virt. eigenvalues --    1.08907   1.10516   1.10516   1.11552   1.11552
 Alpha virt. eigenvalues --    1.15777   1.16208   1.16354   1.16354   1.19807
 Alpha virt. eigenvalues --    1.20268   1.20268   1.27225   1.31090   1.31090
 Alpha virt. eigenvalues --    1.31443   1.33651   1.33651   1.35426   1.37119
 Alpha virt. eigenvalues --    1.38624   1.39518   1.39518   1.40831   1.40831
 Alpha virt. eigenvalues --    1.45819   1.45819   1.48150   1.48561   1.48668
 Alpha virt. eigenvalues --    1.54964   1.54964   1.56806   1.57846   1.57846
 Alpha virt. eigenvalues --    1.66266   1.66266   1.70284   1.71148   1.71148
 Alpha virt. eigenvalues --    1.72716   1.74756   1.74756   1.78373   1.80935
 Alpha virt. eigenvalues --    1.84388   1.84730   1.84730   1.85464   1.85464
 Alpha virt. eigenvalues --    1.92896   1.94491   1.94491   1.94914   1.94914
 Alpha virt. eigenvalues --    2.03338   2.05323   2.05323   2.06870   2.06870
 Alpha virt. eigenvalues --    2.11128   2.13047   2.18607   2.18684   2.18684
 Alpha virt. eigenvalues --    2.20630   2.20630   2.20912   2.21600   2.23004
 Alpha virt. eigenvalues --    2.25089   2.25089   2.29443   2.29656   2.29656
 Alpha virt. eigenvalues --    2.33132   2.33132   2.33917   2.33917   2.35854
 Alpha virt. eigenvalues --    2.38484   2.39739   2.39739   2.41841   2.41841
 Alpha virt. eigenvalues --    2.43114   2.45147   2.48953   2.49506   2.51313
 Alpha virt. eigenvalues --    2.51313   2.55603   2.55970   2.55970   2.58724
 Alpha virt. eigenvalues --    2.58724   2.60924   2.60924   2.63706   2.63706
 Alpha virt. eigenvalues --    2.67872   2.67872   2.68192   2.68917   2.69524
 Alpha virt. eigenvalues --    2.74043   2.75723   2.75723   2.77738   2.77738
 Alpha virt. eigenvalues --    2.79694   2.79694   2.85289   2.85289   2.85969
 Alpha virt. eigenvalues --    2.90229   2.92720   2.93428   2.93428   2.97252
 Alpha virt. eigenvalues --    2.97617   2.97617   2.97696   2.98482   2.98482
 Alpha virt. eigenvalues --    2.99367   2.99367   3.03376   3.03973   3.03973
 Alpha virt. eigenvalues --    3.08019   3.09552   3.13279   3.13279   3.14321
 Alpha virt. eigenvalues --    3.14321   3.19407   3.29525   3.29525   3.30055
 Alpha virt. eigenvalues --    3.30055   3.30692   3.38221   3.38221   3.38661
 Alpha virt. eigenvalues --    3.40498   3.40498   3.43191   3.48793   3.48793
 Alpha virt. eigenvalues --    3.49600   3.54112   3.54112   3.57305   3.60369
 Alpha virt. eigenvalues --    3.60369   3.64174   3.77062   3.82673   3.82673
 Alpha virt. eigenvalues --    3.91604   3.91604   3.98019   4.00084   4.01640
 Alpha virt. eigenvalues --    4.05095   4.08897   4.16276   4.16276   4.23952
 Alpha virt. eigenvalues --    4.23952   4.30242   4.30242   4.36169   4.36835
 Alpha virt. eigenvalues --    4.45743   4.45743   4.51448   4.51448   4.52046
 Alpha virt. eigenvalues --    4.62231   4.62231   4.65141   4.73506   4.73506
 Alpha virt. eigenvalues --    4.73883   4.79933   4.80526   4.80526   4.85654
 Alpha virt. eigenvalues --    5.00264   5.00264   5.01690   5.03323   5.03323
 Alpha virt. eigenvalues --    5.05052   5.06343   5.06343   5.13190   5.13190
 Alpha virt. eigenvalues --    5.16206   5.17098   5.17098   5.30885   5.32099
 Alpha virt. eigenvalues --    5.33665   5.33665   5.42383   5.44020   5.44020
 Alpha virt. eigenvalues --    5.57844   5.57844   5.65113   5.65113   5.65564
 Alpha virt. eigenvalues --    5.65564   5.68652   5.73911   5.75421   5.75992
 Alpha virt. eigenvalues --    5.75992   5.77961   5.78332   5.78332   5.87423
 Alpha virt. eigenvalues --    5.87423   5.92341   5.92506   5.92506   5.96901
 Alpha virt. eigenvalues --    5.96901   5.97572   5.98956   5.98956   5.99785
 Alpha virt. eigenvalues --    6.02473   6.03916   6.03916   6.08355   6.08713
 Alpha virt. eigenvalues --    6.08713   6.10991   6.14216   6.14216   6.15567
 Alpha virt. eigenvalues --    6.16427   6.17398   6.20972   6.20972   6.24091
 Alpha virt. eigenvalues --    6.24091   6.24555   6.25551   6.25551   6.28046
 Alpha virt. eigenvalues --    6.28330   6.28330   6.37961   6.37961   6.37976
 Alpha virt. eigenvalues --    6.39868   6.39868   6.40636   6.40987   6.40987
 Alpha virt. eigenvalues --    6.40989   6.41204   6.44057   6.44057   6.44178
 Alpha virt. eigenvalues --    6.51282   6.54098   6.54098   6.57739   6.57739
 Alpha virt. eigenvalues --    6.60846   6.60846   6.62478   6.62478   6.66041
 Alpha virt. eigenvalues --    6.69414   6.71384   6.71384   6.75189   6.86217
 Alpha virt. eigenvalues --    6.91059   6.91059   6.92281   6.92281   6.92396
 Alpha virt. eigenvalues --    6.97324   6.97555   6.99199   6.99199   7.00054
 Alpha virt. eigenvalues --    7.09576   7.09576   7.20088   7.20088   7.21924
 Alpha virt. eigenvalues --    7.25819   7.34428   7.34428   7.39429   7.40696
 Alpha virt. eigenvalues --    7.40696   7.41794   7.41794   7.47685   7.47685
 Alpha virt. eigenvalues --    7.48456   7.52208   7.55216   7.55280   7.55280
 Alpha virt. eigenvalues --    7.59689   7.65047   7.65047   7.66680   7.66680
 Alpha virt. eigenvalues --    7.66927   7.71066   7.71066   7.71372   7.71372
 Alpha virt. eigenvalues --    7.72509   7.74831   7.80609   7.80609   7.81148
 Alpha virt. eigenvalues --    7.81148   7.83684   7.87003   7.87003   7.89860
 Alpha virt. eigenvalues --    7.94504   7.94504   7.95063   7.97774   7.99139
 Alpha virt. eigenvalues --    7.99139   8.01241   8.01241   8.04844   8.09977
 Alpha virt. eigenvalues --    8.09977   8.16758   8.17115   8.17115   8.19431
 Alpha virt. eigenvalues --    8.19431   8.25208   8.25418   8.29882   8.29882
 Alpha virt. eigenvalues --    8.37646   8.37646   8.40000   8.40000   8.48149
 Alpha virt. eigenvalues --    8.50744   8.51109   8.51109   8.57388   8.57388
 Alpha virt. eigenvalues --    8.63091   8.69874   8.82048   8.82048   8.88472
 Alpha virt. eigenvalues --    8.91999   8.91999   8.97669   8.97669   9.03431
 Alpha virt. eigenvalues --    9.03431   9.03897   9.11138   9.11385   9.11385
 Alpha virt. eigenvalues --    9.14183   9.15996   9.28920   9.34968   9.34968
 Alpha virt. eigenvalues --    9.45908   9.46498   9.47468   9.47468   9.62006
 Alpha virt. eigenvalues --    9.62006   9.66232   9.70512   9.70512   9.71881
 Alpha virt. eigenvalues --    9.81931   9.90328   9.90328  10.01773  10.01773
 Alpha virt. eigenvalues --   10.11599  10.30576  10.33755  10.33755  10.55887
 Alpha virt. eigenvalues --   10.55887  10.84146  10.94393  10.94393  12.70423
 Alpha virt. eigenvalues --   12.82789  12.82789  12.94950  13.28156  13.28156
 Alpha virt. eigenvalues --   28.97101  28.98359  28.98359  29.02164  29.02164
 Alpha virt. eigenvalues --   29.21709 146.47266 146.49011 146.49011 146.52039
 Alpha virt. eigenvalues --  146.52039 146.80945
          Condensed to atoms (all electrons):
               1          2          3          4          5          6
     1  C    5.469649   0.178044   0.178044   0.370413  -0.064225  -0.064225
     2  C    0.178044   5.469649   0.178044  -0.064225   0.370413  -0.064225
     3  C    0.178044   0.178044   5.469649  -0.064225  -0.064225   0.370413
     4  C    0.370413  -0.064225  -0.064225   5.469649   0.178044   0.178044
     5  C   -0.064225   0.370413  -0.064225   0.178044   5.469649   0.178044
     6  C   -0.064225  -0.064225   0.370413   0.178044   0.178044   5.469649
     7  H   -0.038299   0.000844   0.000844   0.339304  -0.024452  -0.024452
     8  H    0.339304  -0.024452  -0.024452  -0.038299   0.000844   0.000844
     9  H   -0.024452  -0.024452   0.339304   0.000844   0.000844  -0.038299
    10  H    0.000844   0.000844  -0.038299  -0.024452  -0.024452   0.339304
    11  H    0.000844  -0.038299   0.000844  -0.024452   0.339304  -0.024452
    12  H   -0.024452   0.339304  -0.024452   0.000844  -0.038299   0.000844
               7          8          9         10         11         12
     1  C   -0.038299   0.339304  -0.024452   0.000844   0.000844  -0.024452
     2  C    0.000844  -0.024452  -0.024452   0.000844  -0.038299   0.339304
     3  C    0.000844  -0.024452   0.339304  -0.038299   0.000844  -0.024452
     4  C    0.339304  -0.038299   0.000844  -0.024452  -0.024452   0.000844
     5  C   -0.024452   0.000844   0.000844  -0.024452   0.339304  -0.038299
     6  C   -0.024452   0.000844  -0.038299   0.339304  -0.024452   0.000844
     7  H    0.392951   0.009552   0.001815   0.009292   0.009292   0.001815
     8  H    0.009552   0.392951   0.009292   0.001815   0.001815   0.009292
     9  H    0.001815   0.009292   0.392951   0.009552   0.001815   0.009292
    10  H    0.009292   0.001815   0.009552   0.392951   0.009292   0.001815
    11  H    0.009292   0.001815   0.001815   0.009292   0.392951   0.009552
    12  H    0.001815   0.009292   0.009292   0.001815   0.009552   0.392951
 Mulliken charges:
               1
     1  C   -0.321492
     2  C   -0.321492
     3  C   -0.321492
     4  C   -0.321492
     5  C   -0.321492
     6  C   -0.321492
     7  H    0.321492
     8  H    0.321492
     9  H    0.321492
    10  H    0.321492
    11  H    0.321492
    12  H    0.321492
 Sum of Mulliken charges =  -0.00000
 Mulliken charges with hydrogens summed into heavy atoms:
               1
     1  C   -0.000000
     2  C   -0.000000
     3  C   -0.000000
     4  C   -0.000000
     5  C   -0.000000
     6  C   -0.000000
 Electronic spatial extent (au):  <R**2>=            362.9713
 Charge=             -0.0000 electrons
 Dipole moment (field-independent basis, Debye):
    X=              0.0000    Y=              0.0000    Z=             -0.0000  Tot=              0.0000
 Quadrupole moment (field-independent basis, Debye-Ang):
   XX=            -35.6954   YY=            -35.6954   ZZ=            -33.1334
   XY=             -0.0000   XZ=              0.0000   YZ=             -0.0000
 Traceless Quadrupole moment (field-independent basis, Debye-Ang):
   XX=             -0.8540   YY=             -0.8540   ZZ=              1.7080
   XY=             -0.0000   XZ=              0.0000   YZ=             -0.0000
 Octapole moment (field-independent basis, Debye-Ang**2):
  XXX=              0.0000  YYY=              4.8168  ZZZ=              0.0000  XYY=              0.0000
  XXY=             -4.8168  XXZ=              0.0000  XZZ=              0.0000  YZZ=              0.0000
  YYZ=             -0.0000  XYZ=             -0.0000
 Hexadecapole moment (field-independent basis, Debye-Ang**3):
 XXXX=           -147.3841 YYYY=           -147.3841 ZZZZ=           -204.2212 XXXY=              0.0000
 XXXZ=              0.0000 YYYX=              0.0000 YYYZ=              0.0000 ZZZX=             -0.0000
 ZZZY=              0.0000 XXYY=            -49.1280 XXZZ=            -54.6321 YYZZ=            -54.6321
 XXYZ=              0.0000 YYXZ=              0.0000 ZZXY=              0.0000
 N-N= 2.205203297619D+02 E-N=-9.789130523898D+02  KE= 2.309302433607D+02
 PrsmSu:  requested number of processors reduced to:  20 ShMem   1 Linda.
 No NMR shielding tensors so no spin-rotation constants.
 Leave Link  601 at Sat Apr 17 11:07:59 2021, MaxMem=   104857600 cpu:             981.5 elap:              21.1
 (Enter /s/ls4/users/knvvv/bin/g16sse/l9999.exe)

 Test job not archived.
 1\1\GINC-N154\Stability\RM062X\Gen\C6H6\KNVVV\17-Apr-2021\0\\#P M062X/
 GEN Integral=UltraFineGrid SCF=NoSymm Stable=(RExt, Opt) IOp(1/33=1)\\
 Database calculations.\\0,1\C,0,0.,0.876801,0.778135\C,0,-0.759332,-0.
 438401,0.778135\C,0,0.759332,-0.438401,0.778135\C,0,0.,0.876801,-0.778
 135\C,0,-0.759332,-0.438401,-0.778135\C,0,0.759332,-0.438401,-0.778135
 \H,0,0.,1.669533,-1.510134\H,0,0.,1.669533,1.510134\H,0,1.445858,-0.83
 4767,1.510134\H,0,1.445858,-0.834767,-1.510134\H,0,-1.445858,-0.834767
 ,-1.510134\H,0,-1.445858,-0.834767,1.510134\\Version=ES64L-G16RevA.03\
 State=1-A1'\HF=-232.0688242\RMSD=1.274e-09\Dipole=0.,0.,0.\Quadrupole=
 -0.6349303,-0.6349303,1.2698605,0.,0.,0.\PG=D03H [3SGV(C2H2)]\\@


 THE ... SCIENTISTS WERE WRONG ... THE MOST PERSISTENT PRINCIPLES 
 OF THE UNIVERSE WERE ACCIDENT AND ERROR.

                          -- FRANK HERBERT IN DUNE
 Job cpu time:       2 days  0 hours 20 minutes 53.2 seconds.
 Elapsed time:       0 days  1 hours 27 minutes 24.1 seconds.
 File lengths (MBytes):  RWF=    601 Int=      0 D2E=      0 Chk=     37 Scr=      1
 Normal termination of Gaussian 16 at Sat Apr 17 11:07:59 2021.
