 Entering Gaussian System, Link 0=/s/ls4/users/knvvv/bin/g16sse/g16
 Input=data/database/M062X--MG3S--17_p4o10_DC9.gjf
 Output=data/database/M062X--MG3S--17_p4o10_DC9.log
 Initial command:
 /s/ls4/users/knvvv/bin/g16sse/l1.exe "/s/ls4/users/knvvv/bin/scratch/Gau-13248.inp" -scrdir="/s/ls4/users/knvvv/bin/scratch/"
 Entering Link 1 = /s/ls4/users/knvvv/bin/g16sse/l1.exe PID=     13249.
  
 Copyright (c) 1988,1990,1992,1993,1995,1998,2003,2009,2016,
            Gaussian, Inc.  All Rights Reserved.
  
 This is part of the Gaussian(R) 16 program.  It is based on
 the Gaussian(R) 09 system (copyright 2009, Gaussian, Inc.),
 the Gaussian(R) 03 system (copyright 2003, Gaussian, Inc.),
 the Gaussian(R) 98 system (copyright 1998, Gaussian, Inc.),
 the Gaussian(R) 94 system (copyright 1995, Gaussian, Inc.),
 the Gaussian 92(TM) system (copyright 1992, Gaussian, Inc.),
 the Gaussian 90(TM) system (copyright 1990, Gaussian, Inc.),
 the Gaussian 88(TM) system (copyright 1988, Gaussian, Inc.),
 the Gaussian 86(TM) system (copyright 1986, Carnegie Mellon
 University), and the Gaussian 82(TM) system (copyright 1983,
 Carnegie Mellon University). Gaussian is a federally registered
 trademark of Gaussian, Inc.
  
 This software contains proprietary and confidential information,
 including trade secrets, belonging to Gaussian, Inc.
  
 This software is provided under written license and may be
 used, copied, transmitted, or stored only in accord with that
 written license.
  
 The following legend is applicable only to US Government
 contracts under FAR:
  
                    RESTRICTED RIGHTS LEGEND
  
 Use, reproduction and disclosure by the US Government is
 subject to restrictions as set forth in subparagraphs (a)
 and (c) of the Commercial Computer Software - Restricted
 Rights clause in FAR 52.227-19.
  
 Gaussian, Inc.
 340 Quinnipiac St., Bldg. 40, Wallingford CT 06492
  
  
 ---------------------------------------------------------------
 Warning -- This program may not be used in any manner that
 competes with the business of Gaussian, Inc. or will provide
 assistance to any competitor of Gaussian, Inc.  The licensee
 of this program is prohibited from giving any competitor of
 Gaussian, Inc. access to this program.  By using this program,
 the user acknowledges that Gaussian, Inc. is engaged in the
 business of creating and licensing software in the field of
 computational chemistry and represents and warrants to the
 licensee that it is not a competitor of Gaussian, Inc. and that
 it will not use this program in any manner prohibited above.
 ---------------------------------------------------------------
  

 Cite this work as:
 Gaussian 16, Revision A.03,
 M. J. Frisch, G. W. Trucks, H. B. Schlegel, G. E. Scuseria, 
 M. A. Robb, J. R. Cheeseman, G. Scalmani, V. Barone, 
 G. A. Petersson, H. Nakatsuji, X. Li, M. Caricato, A. V. Marenich, 
 J. Bloino, B. G. Janesko, R. Gomperts, B. Mennucci, H. P. Hratchian, 
 J. V. Ortiz, A. F. Izmaylov, J. L. Sonnenberg, D. Williams-Young, 
 F. Ding, F. Lipparini, F. Egidi, J. Goings, B. Peng, A. Petrone, 
 T. Henderson, D. Ranasinghe, V. G. Zakrzewski, J. Gao, N. Rega, 
 G. Zheng, W. Liang, M. Hada, M. Ehara, K. Toyota, R. Fukuda, 
 J. Hasegawa, M. Ishida, T. Nakajima, Y. Honda, O. Kitao, H. Nakai, 
 T. Vreven, K. Throssell, J. A. Montgomery, Jr., J. E. Peralta, 
 F. Ogliaro, M. J. Bearpark, J. J. Heyd, E. N. Brothers, K. N. Kudin, 
 V. N. Staroverov, T. A. Keith, R. Kobayashi, J. Normand, 
 K. Raghavachari, A. P. Rendell, J. C. Burant, S. S. Iyengar, 
 J. Tomasi, M. Cossi, J. M. Millam, M. Klene, C. Adamo, R. Cammi, 
 J. W. Ochterski, R. L. Martin, K. Morokuma, O. Farkas, 
 J. B. Foresman, and D. J. Fox, Gaussian, Inc., Wallingford CT, 2016.
 
 ******************************************
 Gaussian 16:  ES64L-G16RevA.03 25-Dec-2016
                18-Apr-2021 
 ******************************************
 %RWF=temp12_50737,70GB
 %nprocshared=48
 Will use up to   48 processors via shared memory.
 Default route: MaxDisk=80GB
 ----------------------------------------------------------------------
 #P M062X/GEN Integral=UltraFineGrid SCF=NoSymm Stable=(RExt, Opt) IOp(
 1/33=1)
 ----------------------------------------------------------------------
 1/33=1,38=1,172=1/1;
 2/12=2,17=6,18=5,40=1/2;
 3/5=7,11=2,25=1,30=1,74=-55,75=-5/1,2,3;
 4/9=2/1;
 5/5=2,38=5/2;
 6/7=2,8=2,9=2,10=2,28=1/1;
 8/6=1,10=90,11=11/1;
 9/8=-3,42=1,46=1/14;
 5/5=2,8=3,17=40,38=5/8(-2);
 6/7=2,8=2,9=2,10=2,28=1/1;
 99/5=1,9=1/99;
 Leave Link    1 at Sun Apr 18 09:11:03 2021, MaxMem=           0 cpu:               8.2 elap:               0.2
 (Enter /s/ls4/users/knvvv/bin/g16sse/l101.exe)
 ONIOM data not found on unit 2.
 ----------------------
 Database calculations.
 ----------------------
 TstMul:  ICh=     0
 TstMul:  Mul=     1
 TstMul:  ICh=     0
 TstMul:  Mul=     1
 Symbolic Z-matrix:
 Charge =  0 Multiplicity = 1
 P                     1.01976  -1.01976   1.01976 
 O                     0.        0.        1.77701 
 P                    -1.01976   1.01976   1.01976 
 O                     0.        1.77701   0. 
 P                     1.01976   1.01976  -1.01976 
 O                     1.77701   0.        0. 
 O                    -1.77701   0.        0. 
 P                    -1.01976  -1.01976  -1.01976 
 O                     0.        0.       -1.77701 
 O                     0.       -1.77701   0. 
 O                    -1.85644  -1.85644  -1.85644 
 O                     1.85644  -1.85644   1.85644 
 O                    -1.85644   1.85644   1.85644 
 O                     1.85644   1.85644  -1.85644 
 
 RdStrC is calling ZToCFu for IStruc=1 NZ=    14.
 PrtBox:  NBox=     1 Levels=  1 BoxLen=    8.00 SMaxX=        7.02
          Shift=            3.508163            3.508163            3.508163
 Box      1 Number                   0 centers from      1 to     14:
 After GenITR:
 ITRead=  0  0  0  0  0  0  0  0  0  0  0  0  0  0
 MicOpt= -1 -1 -1 -1 -1 -1 -1 -1 -1 -1 -1 -1 -1 -1
 ITRead=  0  0  0  0  0  0  0  0  0  0  0  0  0  0
 MicOpt= -1 -1 -1 -1 -1 -1 -1 -1 -1 -1 -1 -1 -1 -1
 NAtoms=     14 NQM=       14 NQMF=       0 NMMI=      0 NMMIF=      0
                NMic=       0 NMicF=      0.
                    Isotopes and Nuclear Properties:
 (Nuclear quadrupole moments (NQMom) in fm**2, nuclear magnetic moments (NMagM)
  in nuclear magnetons)

  Atom         1           2           3           4           5           6           7           8           9          10
 IAtWgt=          31          16          31          16          31          16          16          31          16          16
 AtmWgt=  30.9737634  15.9949146  30.9737634  15.9949146  30.9737634  15.9949146  15.9949146  30.9737634  15.9949146  15.9949146
 NucSpn=           1           0           1           0           1           0           0           1           0           0
 AtZEff=  -0.0000000  -0.0000000  -0.0000000  -0.0000000  -0.0000000  -0.0000000  -0.0000000  -0.0000000  -0.0000000  -0.0000000
 NQMom=    0.0000000   0.0000000   0.0000000   0.0000000   0.0000000   0.0000000   0.0000000   0.0000000   0.0000000   0.0000000
 NMagM=    1.1316000   0.0000000   1.1316000   0.0000000   1.1316000   0.0000000   0.0000000   1.1316000   0.0000000   0.0000000
 AtZNuc=  15.0000000   8.0000000  15.0000000   8.0000000  15.0000000   8.0000000   8.0000000  15.0000000   8.0000000   8.0000000

  Atom        11          12          13          14
 IAtWgt=          16          16          16          16
 AtmWgt=  15.9949146  15.9949146  15.9949146  15.9949146
 NucSpn=           0           0           0           0
 AtZEff=  -0.0000000  -0.0000000  -0.0000000  -0.0000000
 NQMom=    0.0000000   0.0000000   0.0000000   0.0000000
 NMagM=    0.0000000   0.0000000   0.0000000   0.0000000
 AtZNuc=   8.0000000   8.0000000   8.0000000   8.0000000
 No MM parameters found.
 Leave Link  101 at Sun Apr 18 09:11:03 2021, MaxMem=   104857600 cpu:               7.3 elap:               0.2
 (Enter /s/ls4/users/knvvv/bin/g16sse/l202.exe)
                          Input orientation:                          
 ---------------------------------------------------------------------
 Center     Atomic      Atomic             Coordinates (Angstroms)
 Number     Number       Type             X           Y           Z
 ---------------------------------------------------------------------
      1         15           0        1.019760   -1.019760    1.019760
      2          8           0        0.000000    0.000000    1.777010
      3         15           0       -1.019760    1.019760    1.019760
      4          8           0        0.000000    1.777010    0.000000
      5         15           0        1.019760    1.019760   -1.019760
      6          8           0        1.777010    0.000000    0.000000
      7          8           0       -1.777010    0.000000    0.000000
      8         15           0       -1.019760   -1.019760   -1.019760
      9          8           0        0.000000    0.000000   -1.777010
     10          8           0        0.000000   -1.777010    0.000000
     11          8           0       -1.856440   -1.856440   -1.856440
     12          8           0        1.856440   -1.856440    1.856440
     13          8           0       -1.856440    1.856440    1.856440
     14          8           0        1.856440    1.856440   -1.856440
 ---------------------------------------------------------------------
                    Distance matrix (angstroms):
                    1          2          3          4          5
     1  P    0.000000
     2  O    1.628880   0.000000
     3  P    2.884317   1.628880   0.000000
     4  O    3.146704   2.513072   1.628880   0.000000
     5  P    2.884317   3.146704   2.884317   1.628880   0.000000
     6  O    1.628880   2.513072   3.146704   2.513072   1.628880
     7  O    3.146704   2.513072   1.628880   2.513072   3.146704
     8  P    2.884317   3.146704   2.884317   3.146704   2.884317
     9  O    3.146704   3.554020   3.146704   2.513072   1.628880
    10  O    1.628880   2.513072   3.146704   3.554020   3.146704
    11  O    4.152720   4.482711   4.152720   4.482711   4.152720
    12  O    1.449172   2.626604   4.152720   4.482711   4.152720
    13  O    4.152720   2.626604   1.449172   2.626604   4.152720
    14  O    4.152720   4.482711   4.152720   2.626604   1.449172
                    6          7          8          9         10
     6  O    0.000000
     7  O    3.554020   0.000000
     8  P    3.146704   1.628880   0.000000
     9  O    2.513072   2.513072   1.628880   0.000000
    10  O    2.513072   2.513072   1.628880   2.513072   0.000000
    11  O    4.482711   2.626604   1.449172   2.626604   2.626604
    12  O    2.626604   4.482711   4.152720   4.482711   2.626604
    13  O    4.482711   2.626604   4.152720   4.482711   4.482711
    14  O    2.626604   4.482711   4.152720   2.626604   4.482711
                   11         12         13         14
    11  O    0.000000
    12  O    5.250805   0.000000
    13  O    5.250805   5.250805   0.000000
    14  O    5.250805   5.250805   5.250805   0.000000
 Stoichiometry    O10P4
 Framework group  TD[4C3(OP.),3C2(O.O)]
 Deg. of freedom     2
 Full point group                 TD      NOp  24
 Largest Abelian subgroup         D2      NOp   4
 Largest concise Abelian subgroup D2      NOp   4
                         Standard orientation:                         
 ---------------------------------------------------------------------
 Center     Atomic      Atomic             Coordinates (Angstroms)
 Number     Number       Type             X           Y           Z
 ---------------------------------------------------------------------
      1         15           0        1.019760   -1.019760    1.019760
      2          8           0        0.000000    0.000000    1.777010
      3         15           0       -1.019760    1.019760    1.019760
      4          8           0        0.000000    1.777010   -0.000000
      5         15           0        1.019760    1.019760   -1.019760
      6          8           0        1.777010   -0.000000    0.000000
      7          8           0       -1.777010    0.000000   -0.000000
      8         15           0       -1.019760   -1.019760   -1.019760
      9          8           0        0.000000   -0.000000   -1.777010
     10          8           0       -0.000000   -1.777010    0.000000
     11          8           0       -1.856440   -1.856440   -1.856440
     12          8           0        1.856440   -1.856440    1.856440
     13          8           0       -1.856440    1.856440    1.856440
     14          8           0        1.856440    1.856440   -1.856440
 ---------------------------------------------------------------------
 Rotational constants (GHZ):           0.5610913           0.5610913           0.5610913
 Leave Link  202 at Sun Apr 18 09:11:03 2021, MaxMem=   104857600 cpu:              18.8 elap:               0.4
 (Enter /s/ls4/users/knvvv/bin/g16sse/l301.exe)
 General basis read from cards:  (5D, 7F)
 Centers:       2      4      6      7      9     10     11     12     13     14
 S 6 1.00
     Exponent=  8.5885000000D+03 Coefficients=  1.8951500000D-03
     Exponent=  1.2972300000D+03 Coefficients=  1.4385900000D-02
     Exponent=  2.9929600000D+02 Coefficients=  7.0732000000D-02
     Exponent=  8.7377100000D+01 Coefficients=  2.4000100000D-01
     Exponent=  2.5678900000D+01 Coefficients=  5.9479700000D-01
     Exponent=  3.7400400000D+00 Coefficients=  2.8080200000D-01
 S 3 1.00
     Exponent=  4.2117500000D+01 Coefficients=  1.1388900000D-01
     Exponent=  9.6283700000D+00 Coefficients=  9.2081100000D-01
     Exponent=  2.8533200000D+00 Coefficients= -3.2744700000D-03
 S 1 1.00
     Exponent=  9.0566100000D-01 Coefficients=  1.0000000000D+00
 S 1 1.00
     Exponent=  2.5561100000D-01 Coefficients=  1.0000000000D+00
 S 1 1.00
     Exponent=  8.4500000000D-02 Coefficients=  1.0000000000D+00
 P 3 1.00
     Exponent=  4.2117500000D+01 Coefficients=  3.6511400000D-02
     Exponent=  9.6283700000D+00 Coefficients=  2.3715300000D-01
     Exponent=  2.8533200000D+00 Coefficients=  8.1970200000D-01
 P 1 1.00
     Exponent=  9.0566100000D-01 Coefficients=  1.0000000000D+00
 P 1 1.00
     Exponent=  2.5561100000D-01 Coefficients=  1.0000000000D+00
 P 1 1.00
     Exponent=  8.4500000000D-02 Coefficients=  1.0000000000D+00
 D 1 1.00
     Exponent=  2.5840000000D+00 Coefficients=  1.0000000000D+00
 D 1 1.00
     Exponent=  6.4600000000D-01 Coefficients=  1.0000000000D+00
 F 1 1.00
     Exponent=  1.4000000000D+00 Coefficients=  1.0000000000D+00
 ****
 Centers:       1      3      5      8
 S 6 1.00
     Exponent=  7.7492400000D+04 Coefficients=  7.8692120000D-04
     Exponent=  1.1605800000D+04 Coefficients=  6.1082450000D-03
     Exponent=  2.6459600000D+03 Coefficients=  3.1396890000D-02
     Exponent=  7.5497000000D+02 Coefficients=  1.2423790000D-01
     Exponent=  2.4875000000D+02 Coefficients=  3.8115380000D-01
     Exponent=  9.1150000000D+01 Coefficients=  5.5953720000D-01
 S 3 1.00
     Exponent=  9.1150000000D+01 Coefficients=  1.6416170000D-01
     Exponent=  3.6220000000D+01 Coefficients=  6.2590970000D-01
     Exponent=  1.5210000000D+01 Coefficients=  2.6207440000D-01
 S 1 1.00
     Exponent=  4.7100000000D+00 Coefficients=  1.0000000000D+00
 S 1 1.00
     Exponent=  1.7800000000D+00 Coefficients=  1.0000000000D+00
 S 1 1.00
     Exponent=  3.4000000000D-01 Coefficients=  1.0000000000D+00
 S 1 1.00
     Exponent=  1.2000000000D-01 Coefficients=  1.0000000000D+00
 S 1 1.00
     Exponent=  3.4800000000D-02 Coefficients=  1.0000000000D+00
 P 4 1.00
     Exponent=  3.8484000000D+02 Coefficients=  8.9678750000D-03
     Exponent=  9.0550000000D+01 Coefficients=  6.9049020000D-02
     Exponent=  2.8800000000D+01 Coefficients=  2.9287700000D-01
     Exponent=  1.0680000000D+01 Coefficients=  7.2924940000D-01
 P 2 1.00
     Exponent=  4.2500000000D+00 Coefficients=  6.3258220000D-01
     Exponent=  1.7400000000D+00 Coefficients=  4.2329960000D-01
 P 1 1.00
     Exponent=  5.9000000000D-01 Coefficients=  1.0000000000D+00
 P 1 1.00
     Exponent=  2.2000000000D-01 Coefficients=  1.0000000000D+00
 P 1 1.00
     Exponent=  8.0000000000D-02 Coefficients=  1.0000000000D+00
 P 1 1.00
     Exponent=  3.4800000000D-02 Coefficients=  1.0000000000D+00
 D 1 1.00
     Exponent=  2.2000000000D+00 Coefficients=  1.0000000000D+00
 D 1 1.00
     Exponent=  5.5000000000D-01 Coefficients=  1.0000000000D+00
 D 1 1.00
     Exponent=  1.3750000000D-01 Coefficients=  1.0000000000D+00
 F 1 1.00
     Exponent=  9.0000000000D-01 Coefficients=  1.0000000000D+00
 F 1 1.00
     Exponent=  2.2500000000D-01 Coefficients=  1.0000000000D+00
 ****
 Ernie: Thresh=  0.10000D-02 Tol=  0.10000D-05 Strict=F.
 There are   165 symmetry adapted cartesian basis functions of A   symmetry.
 There are   159 symmetry adapted cartesian basis functions of B1  symmetry.
 There are   159 symmetry adapted cartesian basis functions of B2  symmetry.
 There are   159 symmetry adapted cartesian basis functions of B3  symmetry.
 There are   142 symmetry adapted basis functions of A   symmetry.
 There are   138 symmetry adapted basis functions of B1  symmetry.
 There are   138 symmetry adapted basis functions of B2  symmetry.
 There are   138 symmetry adapted basis functions of B3  symmetry.
   556 basis functions,   848 primitive gaussians,   642 cartesian basis functions
    70 alpha electrons       70 beta electrons
       nuclear repulsion energy      1790.8269335325 Hartrees.
 IExCor= 4336 DFT=T Ex+Corr=M062X ExCW=0 ScaHFX=  0.540000
 ScaDFX=  1.000000  1.000000  1.000000  1.000000 ScalE2=  1.000000  1.000000
 IRadAn=      5 IRanWt=     -1 IRanGd=            0 ICorTp=0 IEmpDi=  4
 NAtoms=   14 NActive=   14 NUniq=    3 SFac= 4.00D+00 NAtFMM=   60 NAOKFM=F Big=F
 Integral buffers will be    131072 words long.
 Raffenetti 2 integral format.
 Two-electron integral symmetry is turned on.
 Leave Link  301 at Sun Apr 18 09:11:04 2021, MaxMem=   104857600 cpu:               7.5 elap:               0.2
 (Enter /s/ls4/users/knvvv/bin/g16sse/l302.exe)
 NPDir=0 NMtPBC=     1 NCelOv=     1 NCel=       1 NClECP=     1 NCelD=      1
         NCelK=      1 NCelE2=     1 NClLst=     1 CellRange=     0.0.
 One-electron integrals computed using PRISM.
 One-electron integral symmetry used in STVInt
 PrsmSu:  requested number of processors reduced to:  12 ShMem   1 Linda.
 PrsmSu:  requested number of processors reduced to:  40 ShMem   1 Linda.
 NBasis=   556 RedAO= T EigKep=  3.02D-05  NBF=   142   138   138   138
 NBsUse=   556 1.00D-06 EigRej= -1.00D+00 NBFU=   142   138   138   138
 Precomputing XC quadrature grid using
 IXCGrd= 4 IRadAn=           5 IRanWt=          -1 IRanGd=           0 AccXCQ= 0.00D+00.
 Generated NRdTot=       0 NPtTot=           0 NUsed=           0 NTot=          32
 NSgBfM=   633   633   633   633   633 MxSgAt=    14 MxSgA2=    14.
 Leave Link  302 at Sun Apr 18 09:11:56 2021, MaxMem=   104857600 cpu:            2441.1 elap:              52.0
 (Enter /s/ls4/users/knvvv/bin/g16sse/l303.exe)
 DipDrv:  MaxL=1.
 Leave Link  303 at Sun Apr 18 09:11:56 2021, MaxMem=   104857600 cpu:              15.2 elap:               0.4
 (Enter /s/ls4/users/knvvv/bin/g16sse/l401.exe)
 SCF N**3 symmetry information disabled.
 ExpMin= 3.48D-02 ExpMax= 7.75D+04 ExpMxC= 2.65D+03 IAcc=3 IRadAn=         5 AccDes= 0.00D+00
 Harris functional with IExCor= 1009 and IRadAn=       5 diagonalized for initial guess.
 HarFok:  IExCor= 1009 AccDes= 0.00D+00 IRadAn=         5 IDoV= 1 UseB2=F ITyADJ=14
 ICtDFT=  3500011 ScaDFX=  1.000000  1.000000  1.000000  1.000000
 FoFCou: FMM=F IPFlag=           0 FMFlag=      100000 FMFlg1=           0
         NFxFlg=           0 DoJE=T BraDBF=F KetDBF=T FulRan=T
         wScrn=  0.000000 ICntrl=       500 IOpCl=  0 I1Cent=   200000004 NGrid=           0
         NMat0=    1 NMatS0=      1 NMatT0=    0 NMatD0=    1 NMtDS0=    0 NMtDT0=    0
 Petite list used in FoFCou.
 CoulSu:  requested number of processors reduced to:  37 ShMem   1 Linda.
 CoulSu:  requested number of processors reduced to:  38 ShMem   1 Linda.
 Harris En= -2117.36457489244    
 JPrj=0 DoOrth=F DoCkMO=F.
 Initial guess orbital symmetries:
       Occupied  (T2) (T2) (T2) (A1) (A1) (T2) (T2) (T2) (E) (E)
                 (T2) (T2) (T2) (A1) (T2) (T2) (T2) (A1) (A1) (T2)
                 (T2) (T2) (E) (E) (T1) (T1) (T1) (T2) (T2) (T2)
                 (A1) (T2) (T2) (T2) (A1) (T2) (T2) (T2) (E) (E)
                 (T2) (T2) (T2) (T1) (T1) (T1) (A1) (A1) (T2) (T2)
                 (T2) (T2) (T2) (T2) (T2) (T2) (T2) (E) (E) (E)
                 (E) (T2) (T2) (T2) (T1) (T1) (T1) (T1) (T1) (T1)
       Virtual   (A1) (T2) (T2) (T2) (E) (E) (A1) (T2) (T2) (T2)
                 (T2) (T2) (T2) (A1) (E) (E) (T1) (T1) (T1) (A1)
                 (T1) (T1) (T1) (T2) (T2) (T2) (T2) (T2) (T2) (T2)
                 (T2) (T2) (T2) (T2) (T2) (A1) (E) (E) (T2) (T2)
                 (T2) (A1) (T1) (T1) (T1) (E) (E) (T2) (T2) (T2)
                 (T1) (T1) (T1) (E) (E) (T2) (T2) (T2) (A1) (T1)
                 (T1) (T1) (T2) (T2) (T2) (T2) (T2) (T2) (A1) (T1)
                 (T1) (T1) (E) (E) (T2) (T2) (T2) (A1) (T2) (T2)
                 (T2) (T1) (T1) (T1) (T2) (T2) (T2) (T2) (T2) (T2)
                 (E) (E) (T1) (T1) (T1) (T2) (T2) (T2) (E) (E)
                 (A1) (T2) (T2) (T2) (A2) (T2) (T2) (T2) (A1) (T2)
                 (T2) (T2) (E) (E) (T1) (T1) (T1) (T2) (T2) (T2)
                 (E) (E) (A1) (T1) (T1) (T1) (T2) (T2) (T2) (E)
                 (E) (T1) (T1) (T1) (A1) (T1) (T1) (T1) (T2) (T2)
                 (T2) (T2) (T2) (T2) (A1) (T2) (T2) (T2) (E) (E)
                 (T2) (T2) (T2) (T1) (T1) (T1) (T2) (T2) (T2) (A1)
                 (T1) (T1) (T1) (T2) (T2) (T2) (E) (E) (A1) (T1)
                 (T1) (T1) (T2) (T2) (T2) (E) (E) (T2) (T2) (T2)
                 (T1) (T1) (T1) (A1) (T2) (T2) (T2) (E) (E) (T2)
                 (T2) (T2) (T2) (T2) (T2) (A2) (E) (E) (T1) (T1)
                 (T1) (T1) (T1) (T1) (E) (E) (T2) (T2) (T2) (A1)
                 (T2) (T2) (T2) (T1) (T1) (T1) (E) (E) (T2) (T2)
                 (T2) (T2) (T2) (T2) (T1) (T1) (T1) (E) (E) (A1)
                 (A1) (T2) (T2) (T2) (T2) (T2) (T2) (E) (E) (T1)
                 (T1) (T1) (T1) (T1) (T1) (A1) (T2) (T2) (T2) (E)
                 (E) (T2) (T2) (T2) (A1) (T2) (T2) (T2) (T1) (T1)
                 (T1) (T2) (T2) (T2) (A2) (T1) (T1) (T1) (E) (E)
                 (T2) (T2) (T2) (T2) (T2) (T2) (T1) (T1) (T1) (E)
                 (E) (A1) (A1) (T2) (T2) (T2) (T1) (T1) (T1) (T2)
                 (T2) (T2) (E) (E) (T2) (T2) (T2) (T2) (T2) (T2)
                 (T1) (T1) (T1) (A1) (E) (E) (T2) (T2) (T2) (T1)
                 (T1) (T1) (E) (E) (T2) (T2) (T2) (A2) (A1) (T1)
                 (T1) (T1) (T1) (T1) (T1) (T1) (T1) (T1) (T2) (T2)
                 (T2) (T2) (T2) (T2) (E) (E) (A1) (T2) (T2) (T2)
                 (E) (E) (T2) (T2) (T2) (T1) (T1) (T1) (A2) (T1)
                 (T1) (T1) (A1) (T2) (T2) (T2) (T2) (T2) (T2) (T2)
                 (T2) (T2) (T1) (T1) (T1) (E) (E) (E) (E) (T1)
                 (T1) (T1) (T2) (T2) (T2) (A1) (T2) (T2) (T2) (A1)
                 (E) (E) (T1) (T1) (T1) (T2) (T2) (T2) (T1) (T1)
                 (T1) (T2) (T2) (T2) (A1) (T2) (T2) (T2) (E) (E)
                 (T1) (T1) (T1) (T2) (T2) (T2) (E) (E) (T2) (T2)
                 (T2) (T1) (T1) (T1) (T1) (T1) (T1) (E) (E) (A1)
                 (A2) (T2) (T2) (T2) (T2) (T2) (T2) (E) (E) (T1)
                 (T1) (T1) (T2) (T2) (T2) (E) (E) (T1) (T1) (T1)
                 (A1) (T2) (T2) (T2) (A1) (T2) (T2) (T2) (E) (E)
                 (T1) (T1) (T1) (T2) (T2) (T2) (A1) (T2) (T2) (T2)
                 (T2) (T2) (T2) (T1) (T1) (T1) (E) (E) (A1) (T2)
                 (T2) (T2) (A1) (T2) (T2) (T2) (E) (E) (T2) (T2)
                 (T2) (A1) (A1) (T2) (T2) (T2)
 The electronic state of the initial guess is 1-A1.
 Leave Link  401 at Sun Apr 18 09:11:58 2021, MaxMem=   104857600 cpu:              98.3 elap:               2.1
 (Enter /s/ls4/users/knvvv/bin/g16sse/l502.exe)
 Integral symmetry usage will be decided dynamically.
 Closed shell SCF:
 Using DIIS extrapolation, IDIIS=  1040.
 NGot=   104857600 LenX=   103989240 LenY=   103576434
 Requested convergence on RMS density matrix=1.00D-08 within 128 cycles.
 Requested convergence on MAX density matrix=1.00D-06.
 Requested convergence on             energy=1.00D-06.
 No special actions if energy rises.
 Fock matrices will be formed incrementally for  20 cycles.

 Cycle   1  Pass 1  IDiag  1:
 FoFJK:  IHMeth= 1 ICntrl=       0 DoSepK=F KAlg= 0 I1Cent=           0 FoldK=F
 IRaf= 890000000 NMat=       1 IRICut=       1 DoRegI=T DoRafI=F ISym2E= 1 IDoP0=0 IntGTp=1.
 FoFCou: FMM=F IPFlag=           0 FMFlag=      100000 FMFlg1=           0
         NFxFlg=           0 DoJE=F BraDBF=F KetDBF=F FulRan=T
         wScrn=  0.000000 ICntrl=         0 IOpCl=  0 I1Cent=           0 NGrid=           0
         NMat0=    1 NMatS0=      1 NMatT0=    0 NMatD0=    1 NMtDS0=    0 NMtDT0=    0
 Petite list used in FoFCou.
 CoulSu:  requested number of processors reduced to:  40 ShMem   1 Linda.
 E= -2117.33093561856    
 DIIS: error= 5.79D-02 at cycle   1 NSaved=   1.
 NSaved= 1 IEnMin= 1 EnMin= -2117.33093561856     IErMin= 1 ErrMin= 5.79D-02
 ErrMax= 5.79D-02  0.00D+00 EMaxC= 1.00D-01 BMatC= 1.47D+00 BMatP= 1.47D+00
 IDIUse=3 WtCom= 4.21D-01 WtEn= 5.79D-01
 Coeff-Com:  0.100D+01
 Coeff-En:   0.100D+01
 Coeff:      0.100D+01
 Gap=     0.392 Goal=   None    Shift=    0.000
 GapD=    0.392 DampG=1.000 DampE=0.500 DampFc=0.5000 IDamp=-1.
 Damping current iteration by 5.00D-01
 RMSDP=4.22D-03 MaxDP=2.43D-01              OVMax= 3.27D-01

 Cycle   2  Pass 1  IDiag  1:
 RMSU=  2.11D-03    CP:  9.92D-01
 CoulSu:  requested number of processors reduced to:  40 ShMem   1 Linda.
 E= -2117.54215776516     Delta-E=       -0.211222146601 Rises=F Damp=T
 DIIS: error= 1.67D-02 at cycle   2 NSaved=   2.
 NSaved= 2 IEnMin= 2 EnMin= -2117.54215776516     IErMin= 2 ErrMin= 1.67D-02
 ErrMax= 1.67D-02  0.00D+00 EMaxC= 1.00D-01 BMatC= 1.46D-01 BMatP= 1.47D+00
 IDIUse=3 WtCom= 8.33D-01 WtEn= 1.67D-01
 Coeff-Com:  0.149D+00 0.851D+00
 Coeff-En:   0.357D+00 0.643D+00
 Coeff:      0.184D+00 0.816D+00
 Gap=     0.413 Goal=   None    Shift=    0.000
 RMSDP=1.42D-03 MaxDP=7.09D-02 DE=-2.11D-01 OVMax= 2.11D-01

 Cycle   3  Pass 1  IDiag  1:
 RMSU=  1.09D-03    CP:  9.55D-01  6.16D-01
 CoulSu:  requested number of processors reduced to:  40 ShMem   1 Linda.
 E= -2118.09176694588     Delta-E=       -0.549609180718 Rises=F Damp=F
 DIIS: error= 1.44D-02 at cycle   3 NSaved=   3.
 NSaved= 3 IEnMin= 3 EnMin= -2118.09176694588     IErMin= 3 ErrMin= 1.44D-02
 ErrMax= 1.44D-02  0.00D+00 EMaxC= 1.00D-01 BMatC= 6.79D-02 BMatP= 1.46D-01
 IDIUse=3 WtCom= 8.56D-01 WtEn= 1.44D-01
 Coeff-Com:  0.176D-01 0.390D+00 0.592D+00
 Coeff-En:   0.000D+00 0.000D+00 0.100D+01
 Coeff:      0.151D-01 0.334D+00 0.651D+00
 Gap=     0.407 Goal=   None    Shift=    0.000
 RMSDP=5.45D-04 MaxDP=2.50D-02 DE=-5.50D-01 OVMax= 3.89D-02

 Cycle   4  Pass 1  IDiag  1:
 RMSU=  4.62D-04    CP:  9.60D-01  7.42D-01  9.05D-01
 CoulSu:  requested number of processors reduced to:  40 ShMem   1 Linda.
 E= -2118.13159552304     Delta-E=       -0.039828577166 Rises=F Damp=F
 DIIS: error= 6.81D-03 at cycle   4 NSaved=   4.
 NSaved= 4 IEnMin= 4 EnMin= -2118.13159552304     IErMin= 4 ErrMin= 6.81D-03
 ErrMax= 6.81D-03  0.00D+00 EMaxC= 1.00D-01 BMatC= 1.43D-02 BMatP= 6.79D-02
 IDIUse=3 WtCom= 9.32D-01 WtEn= 6.81D-02
 Coeff-Com: -0.158D-01 0.443D-01 0.333D+00 0.639D+00
 Coeff-En:   0.000D+00 0.000D+00 0.148D+00 0.852D+00
 Coeff:     -0.147D-01 0.412D-01 0.320D+00 0.653D+00
 Gap=     0.409 Goal=   None    Shift=    0.000
 RMSDP=1.73D-04 MaxDP=8.49D-03 DE=-3.98D-02 OVMax= 1.03D-02

 Cycle   5  Pass 1  IDiag  1:
 RMSU=  8.73D-05    CP:  9.59D-01  7.35D-01  9.44D-01  6.93D-01
 CoulSu:  requested number of processors reduced to:  40 ShMem   1 Linda.
 E= -2118.14062045590     Delta-E=       -0.009024932857 Rises=F Damp=F
 DIIS: error= 6.34D-04 at cycle   5 NSaved=   5.
 NSaved= 5 IEnMin= 5 EnMin= -2118.14062045590     IErMin= 5 ErrMin= 6.34D-04
 ErrMax= 6.34D-04  0.00D+00 EMaxC= 1.00D-01 BMatC= 1.50D-04 BMatP= 1.43D-02
 IDIUse=3 WtCom= 9.94D-01 WtEn= 6.34D-03
 Coeff-Com: -0.378D-02 0.188D-02 0.653D-01 0.183D+00 0.754D+00
 Coeff-En:   0.000D+00 0.000D+00 0.000D+00 0.000D+00 0.100D+01
 Coeff:     -0.376D-02 0.187D-02 0.649D-01 0.182D+00 0.755D+00
 Gap=     0.409 Goal=   None    Shift=    0.000
 RMSDP=4.25D-05 MaxDP=1.40D-03 DE=-9.02D-03 OVMax= 2.25D-03

 Cycle   6  Pass 1  IDiag  1:
 RMSU=  2.85D-05    CP:  9.58D-01  7.26D-01  9.52D-01  7.25D-01  8.11D-01
 CoulSu:  requested number of processors reduced to:  40 ShMem   1 Linda.
 E= -2118.14072205874     Delta-E=       -0.000101602845 Rises=F Damp=F
 DIIS: error= 1.60D-04 at cycle   6 NSaved=   6.
 NSaved= 6 IEnMin= 6 EnMin= -2118.14072205874     IErMin= 6 ErrMin= 1.60D-04
 ErrMax= 1.60D-04  0.00D+00 EMaxC= 1.00D-01 BMatC= 8.42D-06 BMatP= 1.50D-04
 IDIUse=3 WtCom= 9.98D-01 WtEn= 1.60D-03
 Coeff-Com: -0.395D-03-0.137D-02 0.172D-03 0.128D-01 0.218D+00 0.771D+00
 Coeff-En:   0.000D+00 0.000D+00 0.000D+00 0.000D+00 0.000D+00 0.100D+01
 Coeff:     -0.394D-03-0.136D-02 0.172D-03 0.127D-01 0.218D+00 0.771D+00
 Gap=     0.409 Goal=   None    Shift=    0.000
 RMSDP=8.01D-06 MaxDP=2.64D-04 DE=-1.02D-04 OVMax= 3.45D-04

 Cycle   7  Pass 1  IDiag  1:
 RMSU=  4.55D-06    CP:  9.58D-01  7.27D-01  9.51D-01  7.23D-01  8.77D-01
                    CP:  9.41D-01
 CoulSu:  requested number of processors reduced to:  40 ShMem   1 Linda.
 E= -2118.14072763619     Delta-E=       -0.000005577441 Rises=F Damp=F
 DIIS: error= 2.33D-05 at cycle   7 NSaved=   7.
 NSaved= 7 IEnMin= 7 EnMin= -2118.14072763619     IErMin= 7 ErrMin= 2.33D-05
 ErrMax= 2.33D-05  0.00D+00 EMaxC= 1.00D-01 BMatC= 3.35D-07 BMatP= 8.42D-06
 IDIUse=1 WtCom= 1.00D+00 WtEn= 0.00D+00
 Coeff-Com:  0.170D-04 0.239D-03-0.507D-02-0.128D-01-0.268D-01 0.468D-01
 Coeff-Com:  0.998D+00
 Coeff:      0.170D-04 0.239D-03-0.507D-02-0.128D-01-0.268D-01 0.468D-01
 Coeff:      0.998D+00
 Gap=     0.409 Goal=   None    Shift=    0.000
 RMSDP=1.93D-06 MaxDP=5.72D-05 DE=-5.58D-06 OVMax= 8.64D-05

 Cycle   8  Pass 1  IDiag  1:
 RMSU=  1.38D-06    CP:  9.58D-01  7.27D-01  9.51D-01  7.23D-01  8.80D-01
                    CP:  9.86D-01  1.05D+00
 CoulSu:  requested number of processors reduced to:  40 ShMem   1 Linda.
 E= -2118.14072789849     Delta-E=       -0.000000262309 Rises=F Damp=F
 DIIS: error= 6.15D-06 at cycle   8 NSaved=   8.
 NSaved= 8 IEnMin= 8 EnMin= -2118.14072789849     IErMin= 8 ErrMin= 6.15D-06
 ErrMax= 6.15D-06  0.00D+00 EMaxC= 1.00D-01 BMatC= 1.63D-08 BMatP= 3.35D-07
 IDIUse=1 WtCom= 1.00D+00 WtEn= 0.00D+00
 Coeff-Com: -0.321D-04 0.114D-03-0.567D-03-0.944D-03-0.476D-02-0.989D-02
 Coeff-Com:  0.776D-01 0.938D+00
 Coeff:     -0.321D-04 0.114D-03-0.567D-03-0.944D-03-0.476D-02-0.989D-02
 Coeff:      0.776D-01 0.938D+00
 Gap=     0.409 Goal=   None    Shift=    0.000
 DSYEVD-2 returned Info=         835 IAlg= 4 N=   556 NDim=   556 NE2=      186287 trying  DSYEV.
 RMSDP=4.70D-07 MaxDP=2.62D-05 DE=-2.62D-07 OVMax= 2.04D-05

 Cycle   9  Pass 1  IDiag  1:
 RMSU=  1.85D-07    CP:  9.58D-01  7.27D-01  9.51D-01  7.23D-01  8.82D-01
                    CP:  9.87D-01  1.04D+00  1.23D+00
 CoulSu:  requested number of processors reduced to:  40 ShMem   1 Linda.
 E= -2118.14072791141     Delta-E=       -0.000000012918 Rises=F Damp=F
 DIIS: error= 9.96D-07 at cycle   9 NSaved=   9.
 NSaved= 9 IEnMin= 9 EnMin= -2118.14072791141     IErMin= 9 ErrMin= 9.96D-07
 ErrMax= 9.96D-07  0.00D+00 EMaxC= 1.00D-01 BMatC= 3.46D-10 BMatP= 1.63D-08
 IDIUse=1 WtCom= 1.00D+00 WtEn= 0.00D+00
 Coeff-Com: -0.132D-05 0.263D-05 0.839D-04 0.222D-03 0.259D-03-0.222D-02
 Coeff-Com: -0.340D-01-0.415D-01 0.108D+01
 Coeff:     -0.132D-05 0.263D-05 0.839D-04 0.222D-03 0.259D-03-0.222D-02
 Coeff:     -0.340D-01-0.415D-01 0.108D+01
 Gap=     0.409 Goal=   None    Shift=    0.000
 DSYEVD-2 returned Info=         835 IAlg= 4 N=   556 NDim=   556 NE2=      186287 trying  DSYEV.
 RMSDP=1.32D-07 MaxDP=5.81D-06 DE=-1.29D-08 OVMax= 5.21D-06

 Cycle  10  Pass 1  IDiag  1:
 RMSU=  2.47D-08    CP:  9.58D-01  7.27D-01  9.51D-01  7.23D-01  8.82D-01
                    CP:  9.88D-01  1.04D+00  1.31D+00  1.23D+00
 CoulSu:  requested number of processors reduced to:  41 ShMem   1 Linda.
 E= -2118.14072791177     Delta-E=       -0.000000000356 Rises=F Damp=F
 DIIS: error= 1.50D-07 at cycle  10 NSaved=  10.
 NSaved=10 IEnMin=10 EnMin= -2118.14072791177     IErMin=10 ErrMin= 1.50D-07
 ErrMax= 1.50D-07  0.00D+00 EMaxC= 1.00D-01 BMatC= 8.14D-12 BMatP= 3.46D-10
 IDIUse=1 WtCom= 1.00D+00 WtEn= 0.00D+00
 Coeff-Com:  0.778D-06-0.263D-05 0.195D-04 0.298D-04 0.177D-03 0.351D-03
 Coeff-Com: -0.418D-02-0.305D-01 0.134D+00 0.900D+00
 Coeff:      0.778D-06-0.263D-05 0.195D-04 0.298D-04 0.177D-03 0.351D-03
 Coeff:     -0.418D-02-0.305D-01 0.134D+00 0.900D+00
 Gap=     0.409 Goal=   None    Shift=    0.000
 DSYEVD-2 returned Info=        1113 IAlg= 4 N=   556 NDim=   556 NE2=      186287 trying  DSYEV.
 RMSDP=1.01D-08 MaxDP=3.50D-07 DE=-3.56D-10 OVMax= 5.64D-07

 Cycle  11  Pass 1  IDiag  1:
 RMSU=  6.51D-09    CP:  9.58D-01  7.27D-01  9.51D-01  7.23D-01  8.82D-01
                    CP:  9.88D-01  1.03D+00  1.31D+00  1.24D+00  1.12D+00
 CoulSu:  requested number of processors reduced to:  41 ShMem   1 Linda.
 E= -2118.14072791164     Delta-E=        0.000000000125 Rises=F Damp=F
 DIIS: error= 2.92D-08 at cycle  11 NSaved=  11.
 NSaved=11 IEnMin=10 EnMin= -2118.14072791177     IErMin=11 ErrMin= 2.92D-08
 ErrMax= 2.92D-08  0.00D+00 EMaxC= 1.00D-01 BMatC= 2.90D-13 BMatP= 8.14D-12
 IDIUse=1 WtCom= 1.00D+00 WtEn= 0.00D+00
 Coeff-Com:  0.436D-07-0.254D-06-0.252D-05-0.791D-05-0.900D-05 0.119D-03
 Coeff-Com:  0.168D-02 0.842D-03-0.550D-01 0.379D-01 0.101D+01
 Coeff:      0.436D-07-0.254D-06-0.252D-05-0.791D-05-0.900D-05 0.119D-03
 Coeff:      0.168D-02 0.842D-03-0.550D-01 0.379D-01 0.101D+01
 Gap=     0.409 Goal=   None    Shift=    0.000
 DSYEVD-2 returned Info=         835 IAlg= 4 N=   556 NDim=   556 NE2=      186287 trying  DSYEV.
 RMSDP=3.12D-09 MaxDP=1.91D-07 DE= 1.25D-10 OVMax= 2.96D-07

 SCF Done:  E(RM062X) =  -2118.14072791     A.U. after   11 cycles
            NFock= 11  Conv=0.31D-08     -V/T= 2.0024
 KE= 2.113137641033D+03 PE=-8.598231877639D+03 EE= 2.576126575162D+03
 Leave Link  502 at Sun Apr 18 09:13:25 2021, MaxMem=   104857600 cpu:            4031.1 elap:              86.4
 (Enter /s/ls4/users/knvvv/bin/g16sse/l601.exe)
 Copying SCF densities to generalized density rwf, IOpCl= 0 IROHF=0.

 **********************************************************************

            Population analysis using the SCF density.

 **********************************************************************

 Orbital symmetries:
       Occupied  (T2) (T2) (T2) (A1) (E) (E) (T2) (T2) (T2) (A1)
                 (T2) (T2) (T2) (A1) (T2) (T2) (T2) (A1) (T1) (T1)
                 (T1) (T2) (T2) (T2) (E) (E) (A1) (T2) (T2) (T2)
                 (A1) (T2) (T2) (T2) (E) (E) (T2) (T2) (T2) (A1)
                 (T2) (T2) (T2) (T1) (T1) (T1) (A1) (T2) (T2) (T2)
                 (A1) (T2) (T2) (T2) (E) (E) (T2) (T2) (T2) (T1)
                 (T1) (T1) (E) (E) (T2) (T2) (T2) (T1) (T1) (T1)
       Virtual   (A1) (T2) (T2) (T2) (A1) (E) (E) (T2) (T2) (T2)
                 (E) (E) (T2) (T2) (T2) (A1) (T1) (T1) (T1) (A1)
                 (T2) (T2) (T2) (T1) (T1) (T1) (T2) (T2) (T2) (T2)
                 (T2) (T2) (A1) (T2) (T2) (T2) (E) (E) (T2) (T2)
                 (T2) (T1) (T1) (T1) (A1) (E) (E) (T2) (T2) (T2)
                 (T1) (T1) (T1) (A1) (T2) (T2) (T2) (E) (E) (T2)
                 (T2) (T2) (T1) (T1) (T1) (T2) (T2) (T2) (T1) (T1)
                 (T1) (A1) (E) (E) (T2) (T2) (T2) (A1) (T2) (T2)
                 (T2) (T2) (T2) (T2) (T1) (T1) (T1) (T2) (T2) (T2)
                 (E) (E) (T1) (T1) (T1) (T2) (T2) (T2) (E) (E)
                 (A1) (T2) (T2) (T2) (A2) (T2) (T2) (T2) (A1) (T2)
                 (T2) (T2) (T1) (T1) (T1) (E) (E) (E) (E) (T2)
                 (T2) (T2) (A1) (T1) (T1) (T1) (T1) (T1) (T1) (T2)
                 (T2) (T2) (E) (E) (T1) (T1) (T1) (A1) (T2) (T2)
                 (T2) (T2) (T2) (T2) (A1) (T2) (T2) (T2) (E) (E)
                 (T2) (T2) (T2) (T1) (T1) (T1) (T2) (T2) (T2) (A1)
                 (T1) (T1) (T1) (T2) (T2) (T2) (A1) (T1) (T1) (T1)
                 (E) (E) (T2) (T2) (T2) (E) (E) (T2) (T2) (T2)
                 (T1) (T1) (T1) (T2) (T2) (T2) (A1) (E) (E) (T2)
                 (T2) (T2) (A2) (T2) (T2) (T2) (T1) (T1) (T1) (T1)
                 (T1) (T1) (E) (E) (E) (E) (T2) (T2) (T2) (A1)
                 (T1) (T1) (T1) (T2) (T2) (T2) (E) (E) (T2) (T2)
                 (T2) (T1) (T1) (T1) (T2) (T2) (T2) (E) (E) (A1)
                 (A1) (T2) (T2) (T2) (T2) (T2) (T2) (E) (E) (T1)
                 (T1) (T1) (T1) (T1) (T1) (A1) (T2) (T2) (T2) (E)
                 (E) (T2) (T2) (T2) (A1) (T2) (T2) (T2) (T1) (T1)
                 (T1) (T2) (T2) (T2) (A2) (T1) (T1) (T1) (E) (E)
                 (T2) (T2) (T2) (T2) (T2) (T2) (T1) (T1) (T1) (E)
                 (E) (A1) (A1) (T2) (T2) (T2) (T1) (T1) (T1) (T2)
                 (T2) (T2) (E) (E) (T2) (T2) (T2) (T2) (T2) (T2)
                 (T1) (T1) (T1) (E) (E) (A1) (T1) (T1) (T1) (E)
                 (E) (T2) (T2) (T2) (T2) (T2) (T2) (T1) (T1) (T1)
                 (A2) (T1) (T1) (T1) (A1) (T2) (T2) (T2) (A2) (T1)
                 (T1) (T1) (T2) (T2) (T2) (E) (E) (A1) (T2) (T2)
                 (T2) (A1) (T1) (T1) (T1) (T2) (T2) (T2) (T1) (T1)
                 (T1) (T2) (T2) (T2) (E) (E) (T2) (T2) (T2) (T1)
                 (T1) (T1) (T2) (T2) (T2) (E) (E) (T1) (T1) (T1)
                 (T2) (T2) (T2) (A1) (E) (E) (A1) (T2) (T2) (T2)
                 (T1) (T1) (T1) (E) (E) (T2) (T2) (T2) (T1) (T1)
                 (T1) (T2) (T2) (T2) (A1) (E) (E) (T2) (T2) (T2)
                 (T1) (T1) (T1) (T2) (T2) (T2) (E) (E) (T2) (T2)
                 (T2) (T1) (T1) (T1) (T1) (T1) (T1) (E) (E) (A1)
                 (A2) (T2) (T2) (T2) (T2) (T2) (T2) (E) (E) (T1)
                 (T1) (T1) (T2) (T2) (T2) (E) (E) (T1) (T1) (T1)
                 (A1) (T2) (T2) (T2) (T2) (T2) (T2) (A1) (E) (E)
                 (T1) (T1) (T1) (T2) (T2) (T2) (A1) (T2) (T2) (T2)
                 (T2) (T2) (T2) (T1) (T1) (T1) (E) (E) (A1) (T2)
                 (T2) (T2) (E) (E) (A1) (T2) (T2) (T2) (T2) (T2)
                 (T2) (A1) (A1) (T2) (T2) (T2)
 The electronic state is 1-A1.
 Alpha  occ. eigenvalues --  -78.26761 -78.26761 -78.26761 -78.26761 -19.76480
 Alpha  occ. eigenvalues --  -19.76480 -19.76479 -19.76479 -19.76479 -19.76478
 Alpha  occ. eigenvalues --  -19.67791 -19.67791 -19.67791 -19.67791  -7.06937
 Alpha  occ. eigenvalues --   -7.06937  -7.06937  -7.06936  -5.18941  -5.18941
 Alpha  occ. eigenvalues --   -5.18941  -5.18940  -5.18940  -5.18940  -5.18940
 Alpha  occ. eigenvalues --   -5.18940  -5.18561  -5.18558  -5.18558  -5.18558
 Alpha  occ. eigenvalues --   -1.37183  -1.29527  -1.29527  -1.29527  -1.24194
 Alpha  occ. eigenvalues --   -1.24194  -1.18200  -1.18200  -1.18200  -1.17523
 Alpha  occ. eigenvalues --   -0.85176  -0.85176  -0.85176  -0.74109  -0.74109
 Alpha  occ. eigenvalues --   -0.74109  -0.72723  -0.65529  -0.65529  -0.65529
 Alpha  occ. eigenvalues --   -0.58698  -0.58240  -0.58240  -0.58240  -0.54877
 Alpha  occ. eigenvalues --   -0.54877  -0.53800  -0.53800  -0.53800  -0.53005
 Alpha  occ. eigenvalues --   -0.53005  -0.53005  -0.49058  -0.49058  -0.47827
 Alpha  occ. eigenvalues --   -0.47827  -0.47827  -0.46337  -0.46337  -0.46337
 Alpha virt. eigenvalues --   -0.05445   0.00260   0.00260   0.00260   0.01397
 Alpha virt. eigenvalues --    0.01708   0.01708   0.03717   0.03717   0.03717
 Alpha virt. eigenvalues --    0.04400   0.04400   0.05949   0.05949   0.05949
 Alpha virt. eigenvalues --    0.06267   0.07502   0.07502   0.07502   0.07887
 Alpha virt. eigenvalues --    0.10573   0.10573   0.10573   0.11410   0.11410
 Alpha virt. eigenvalues --    0.11410   0.11841   0.11841   0.11841   0.16293
 Alpha virt. eigenvalues --    0.16293   0.16293   0.17375   0.20123   0.20123
 Alpha virt. eigenvalues --    0.20123   0.21455   0.21455   0.22810   0.22810
 Alpha virt. eigenvalues --    0.22810   0.23424   0.23424   0.23424   0.23434
 Alpha virt. eigenvalues --    0.25438   0.25438   0.26997   0.26997   0.26997
 Alpha virt. eigenvalues --    0.27947   0.27947   0.27947   0.28030   0.28519
 Alpha virt. eigenvalues --    0.28519   0.28519   0.29177   0.29177   0.30737
 Alpha virt. eigenvalues --    0.30737   0.30737   0.31227   0.31227   0.31227
 Alpha virt. eigenvalues --    0.32214   0.32214   0.32214   0.35443   0.35443
 Alpha virt. eigenvalues --    0.35443   0.36543   0.36817   0.36817   0.40127
 Alpha virt. eigenvalues --    0.40127   0.40127   0.43367   0.44284   0.44284
 Alpha virt. eigenvalues --    0.44284   0.47263   0.47263   0.47263   0.48900
 Alpha virt. eigenvalues --    0.48900   0.48900   0.50781   0.50781   0.50781
 Alpha virt. eigenvalues --    0.51085   0.51085   0.60436   0.60436   0.60436
 Alpha virt. eigenvalues --    0.60935   0.60935   0.60935   0.62869   0.62869
 Alpha virt. eigenvalues --    0.65629   0.69891   0.69891   0.69891   0.73541
 Alpha virt. eigenvalues --    0.80095   0.80095   0.80095   0.80739   0.81970
 Alpha virt. eigenvalues --    0.81970   0.81970   0.85730   0.85730   0.85730
 Alpha virt. eigenvalues --    0.86866   0.86866   0.89321   0.89321   0.90283
 Alpha virt. eigenvalues --    0.90283   0.90283   0.91204   0.93792   0.93792
 Alpha virt. eigenvalues --    0.93792   0.96496   0.96496   0.96496   0.96675
 Alpha virt. eigenvalues --    0.96675   0.96675   0.96732   0.96732   0.97633
 Alpha virt. eigenvalues --    0.97633   0.97633   0.98801   1.02233   1.02233
 Alpha virt. eigenvalues --    1.02233   1.06141   1.06141   1.06141   1.09122
 Alpha virt. eigenvalues --    1.09523   1.09523   1.09523   1.12092   1.12092
 Alpha virt. eigenvalues --    1.18260   1.18260   1.18260   1.19713   1.19713
 Alpha virt. eigenvalues --    1.19713   1.23253   1.23253   1.23253   1.23548
 Alpha virt. eigenvalues --    1.26165   1.26165   1.26165   1.26618   1.26618
 Alpha virt. eigenvalues --    1.26618   1.26646   1.29002   1.29002   1.29002
 Alpha virt. eigenvalues --    1.30777   1.30777   1.31559   1.31559   1.31559
 Alpha virt. eigenvalues --    1.34382   1.34382   1.36162   1.36162   1.36162
 Alpha virt. eigenvalues --    1.44950   1.44950   1.44950   1.47885   1.47885
 Alpha virt. eigenvalues --    1.47885   1.51081   1.51861   1.51861   1.60616
 Alpha virt. eigenvalues --    1.60616   1.60616   1.71916   1.72244   1.72244
 Alpha virt. eigenvalues --    1.72244   1.72349   1.72349   1.72349   1.77989
 Alpha virt. eigenvalues --    1.77989   1.77989   1.78015   1.78015   1.80494
 Alpha virt. eigenvalues --    1.80494   1.81186   1.81186   1.81186   1.89724
 Alpha virt. eigenvalues --    1.96351   1.96351   1.96351   1.96651   1.96651
 Alpha virt. eigenvalues --    1.96651   1.99770   1.99770   1.99775   1.99775
 Alpha virt. eigenvalues --    1.99775   2.08805   2.08805   2.08805   2.08951
 Alpha virt. eigenvalues --    2.08951   2.08951   2.09759   2.09759   2.15150
 Alpha virt. eigenvalues --    2.27561   2.29179   2.29179   2.29179   2.31186
 Alpha virt. eigenvalues --    2.31186   2.31186   2.36434   2.36434   2.36639
 Alpha virt. eigenvalues --    2.36639   2.36639   2.42560   2.42560   2.42560
 Alpha virt. eigenvalues --    2.44679   2.51689   2.51689   2.51689   2.54455
 Alpha virt. eigenvalues --    2.54455   2.58657   2.58657   2.58657   2.71103
 Alpha virt. eigenvalues --    2.79906   2.79906   2.79906   2.82998   2.82998
 Alpha virt. eigenvalues --    2.82998   2.93122   2.93122   2.93122   2.99695
 Alpha virt. eigenvalues --    3.02649   3.02649   3.02649   3.03905   3.03905
 Alpha virt. eigenvalues --    3.07294   3.07294   3.07294   3.11481   3.11481
 Alpha virt. eigenvalues --    3.11481   3.12369   3.12369   3.12369   3.17510
 Alpha virt. eigenvalues --    3.17510   3.24497   3.32388   3.38361   3.38361
 Alpha virt. eigenvalues --    3.38361   4.08363   4.08363   4.08363   4.13297
 Alpha virt. eigenvalues --    4.13297   4.13297   4.17396   4.17396   4.39363
 Alpha virt. eigenvalues --    4.39363   4.39363   4.49375   4.49375   4.49375
 Alpha virt. eigenvalues --    4.51341   4.51341   4.51341   4.56085   4.56085
 Alpha virt. eigenvalues --    4.56113   4.91828   4.91828   4.91828   4.92361
 Alpha virt. eigenvalues --    4.92361   4.96322   4.96322   4.96322   4.97369
 Alpha virt. eigenvalues --    4.97369   4.97369   4.98999   4.98999   4.98999
 Alpha virt. eigenvalues --    5.01460   5.03881   5.03881   5.03881   5.04679
 Alpha virt. eigenvalues --    5.06516   5.06516   5.06516   5.06735   5.09207
 Alpha virt. eigenvalues --    5.09207   5.09207   5.09578   5.09578   5.09578
 Alpha virt. eigenvalues --    5.11098   5.11098   5.12114   5.12253   5.12253
 Alpha virt. eigenvalues --    5.12253   5.15390   5.15690   5.15690   5.15690
 Alpha virt. eigenvalues --    5.16994   5.16994   5.16994   5.17266   5.17266
 Alpha virt. eigenvalues --    5.17266   5.19838   5.19838   5.19838   5.19940
 Alpha virt. eigenvalues --    5.19940   5.20821   5.20821   5.20821   5.27609
 Alpha virt. eigenvalues --    5.27609   5.27609   5.27626   5.27626   5.27626
 Alpha virt. eigenvalues --    5.29739   5.29739   5.34068   5.34068   5.34068
 Alpha virt. eigenvalues --    5.37225   5.37225   5.37225   5.38692   5.39865
 Alpha virt. eigenvalues --    5.39865   5.50065   5.51210   5.51210   5.51210
 Alpha virt. eigenvalues --    5.52892   5.52892   5.52892   5.54060   5.54060
 Alpha virt. eigenvalues --    5.59455   5.59455   5.59455   5.66604   5.66604
 Alpha virt. eigenvalues --    5.66604   5.71282   5.71282   5.71282   6.08189
 Alpha virt. eigenvalues --    6.16876   6.16876   6.19738   6.19738   6.19738
 Alpha virt. eigenvalues --    6.21980   6.21980   6.21980   6.37329   6.37329
 Alpha virt. eigenvalues --    6.37329   6.82794   6.82794   6.86002   6.86002
 Alpha virt. eigenvalues --    6.86002   6.87202   6.87202   6.87202   6.91499
 Alpha virt. eigenvalues --    6.91499   6.91499   6.92251   6.92251   6.92307
 Alpha virt. eigenvalues --    6.97165   7.02921   7.02921   7.02921   7.06912
 Alpha virt. eigenvalues --    7.06912   7.06912   7.08156   7.08156   7.11326
 Alpha virt. eigenvalues --    7.11326   7.11326   7.18339   7.18339   7.18339
 Alpha virt. eigenvalues --    7.31072   7.31072   7.32358   7.32358   7.32358
 Alpha virt. eigenvalues --    7.35842   7.38785   7.38785   7.38785   7.49549
 Alpha virt. eigenvalues --    7.49549   7.49549   7.50202   7.52438   7.52438
 Alpha virt. eigenvalues --    7.53587   7.53587   7.53587   7.60412   7.60412
 Alpha virt. eigenvalues --    7.60412   8.62398   8.69889   8.69889   8.69889
 Alpha virt. eigenvalues --   13.53204  13.53204  13.53204  13.54990  13.54990
 Alpha virt. eigenvalues --   13.54990  13.59941  13.59941  14.08943  14.15382
 Alpha virt. eigenvalues --   14.15382  14.15382  50.08863  50.08863  50.11171
 Alpha virt. eigenvalues --   50.13669  50.13669  50.13669  50.24979  50.24979
 Alpha virt. eigenvalues --   50.24979  50.29944 164.98393 165.19146 165.19146
 Alpha virt. eigenvalues --  165.19146
          Condensed to atoms (all electrons):
               1          2          3          4          5          6
     1  P   13.178853   0.074893  -0.104479   0.063667  -0.104479   0.074893
     2  O    0.074893   8.816919   0.074893  -0.048399   0.063667  -0.048399
     3  P   -0.104479   0.074893  13.178853   0.074893  -0.104479   0.063667
     4  O    0.063667  -0.048399   0.074893   8.816919   0.074893  -0.048399
     5  P   -0.104479   0.063667  -0.104479   0.074893  13.178853   0.074893
     6  O    0.074893  -0.048399   0.063667  -0.048399   0.074893   8.816919
     7  O    0.063667  -0.048399   0.074893  -0.048399   0.063667  -0.157166
     8  P   -0.104479   0.063667  -0.104479   0.063667  -0.104479   0.063667
     9  O    0.063667  -0.157166   0.063667  -0.048399   0.074893  -0.048399
    10  O    0.074893  -0.048399   0.063667  -0.157166   0.063667  -0.048399
    11  O   -0.024156   0.016287  -0.024156   0.016287  -0.024156   0.016287
    12  O    0.400085  -0.059910  -0.024156   0.016287  -0.024156  -0.059910
    13  O   -0.024156  -0.059910   0.400085  -0.059910  -0.024156   0.016287
    14  O   -0.024156   0.016287  -0.024156  -0.059910   0.400085  -0.059910
               7          8          9         10         11         12
     1  P    0.063667  -0.104479   0.063667   0.074893  -0.024156   0.400085
     2  O   -0.048399   0.063667  -0.157166  -0.048399   0.016287  -0.059910
     3  P    0.074893  -0.104479   0.063667   0.063667  -0.024156  -0.024156
     4  O   -0.048399   0.063667  -0.048399  -0.157166   0.016287   0.016287
     5  P    0.063667  -0.104479   0.074893   0.063667  -0.024156  -0.024156
     6  O   -0.157166   0.063667  -0.048399  -0.048399   0.016287  -0.059910
     7  O    8.816919   0.074893  -0.048399  -0.048399  -0.059910   0.016287
     8  P    0.074893  13.178853   0.074893   0.074893   0.400085  -0.024156
     9  O   -0.048399   0.074893   8.816919  -0.048399  -0.059910   0.016287
    10  O   -0.048399   0.074893  -0.048399   8.816919  -0.059910  -0.059910
    11  O   -0.059910   0.400085  -0.059910  -0.059910   8.221872  -0.003792
    12  O    0.016287  -0.024156   0.016287  -0.059910  -0.003792   8.221872
    13  O   -0.059910  -0.024156   0.016287   0.016287  -0.003792  -0.003792
    14  O    0.016287  -0.024156  -0.059910   0.016287  -0.003792  -0.003792
              13         14
     1  P   -0.024156  -0.024156
     2  O   -0.059910   0.016287
     3  P    0.400085  -0.024156
     4  O   -0.059910  -0.059910
     5  P   -0.024156   0.400085
     6  O    0.016287  -0.059910
     7  O   -0.059910   0.016287
     8  P   -0.024156  -0.024156
     9  O    0.016287  -0.059910
    10  O    0.016287   0.016287
    11  O   -0.003792  -0.003792
    12  O   -0.003792  -0.003792
    13  O    8.221872  -0.003792
    14  O   -0.003792   8.221872
 Mulliken charges:
               1
     1  P    1.391286
     2  O   -0.656030
     3  P    1.391286
     4  O   -0.656030
     5  P    1.391286
     6  O   -0.656030
     7  O   -0.656030
     8  P    1.391286
     9  O   -0.656030
    10  O   -0.656030
    11  O   -0.407241
    12  O   -0.407241
    13  O   -0.407241
    14  O   -0.407241
 Sum of Mulliken charges =   0.00000
 Mulliken charges with hydrogens summed into heavy atoms:
               1
     1  P    1.391286
     2  O   -0.656030
     3  P    1.391286
     4  O   -0.656030
     5  P    1.391286
     6  O   -0.656030
     7  O   -0.656030
     8  P    1.391286
     9  O   -0.656030
    10  O   -0.656030
    11  O   -0.407241
    12  O   -0.407241
    13  O   -0.407241
    14  O   -0.407241
 Electronic spatial extent (au):  <R**2>=           2647.1417
 Charge=             -0.0000 electrons
 Dipole moment (field-independent basis, Debye):
    X=             -0.0000    Y=              0.0000    Z=             -0.0000  Tot=              0.0000
 Quadrupole moment (field-independent basis, Debye-Ang):
   XX=           -114.7440   YY=           -114.7440   ZZ=           -114.7440
   XY=             -0.0000   XZ=              0.0000   YZ=             -0.0000
 Traceless Quadrupole moment (field-independent basis, Debye-Ang):
   XX=              0.0000   YY=              0.0000   ZZ=             -0.0000
   XY=             -0.0000   XZ=              0.0000   YZ=             -0.0000
 Octapole moment (field-independent basis, Debye-Ang**2):
  XXX=             -0.0000  YYY=              0.0000  ZZZ=             -0.0000  XYY=             -0.0000
  XXY=             -0.0000  XXZ=             -0.0000  XZZ=             -0.0000  YZZ=             -0.0000
  YYZ=             -0.0000  XYZ=             35.7051
 Hexadecapole moment (field-independent basis, Debye-Ang**3):
 XXXX=          -1124.2826 YYYY=          -1124.2826 ZZZZ=          -1124.2826 XXXY=              0.0000
 XXXZ=             -0.0000 YYYX=             -0.0000 YYYZ=              0.0000 ZZZX=              0.0000
 ZZZY=             -0.0000 XXYY=           -414.6044 XXZZ=           -414.6044 YYZZ=           -414.6044
 XXYZ=              0.0000 YYXZ=              0.0000 ZZXY=             -0.0000
 N-N= 1.790826933532D+03 E-N=-8.598231887889D+03  KE= 2.113137641033D+03
 PrsmSu:  requested number of processors reduced to:  44 ShMem   1 Linda.
 No NMR shielding tensors so no spin-rotation constants.
 Leave Link  601 at Sun Apr 18 09:13:46 2021, MaxMem=   104857600 cpu:            1008.9 elap:              21.5
 (Enter /s/ls4/users/knvvv/bin/g16sse/l801.exe)
 DoSCS=F DFT=T ScalE2(SS,OS)=  1.000000  1.000000
 Range of M.O.s used for correlation:     1   556
 NBasis=   556 NAE=    70 NBE=    70 NFC=     0 NFV=     0
 NROrb=    556 NOA=    70 NOB=    70 NVA=   486 NVB=   486

 **** Warning!!: The largest alpha MO coefficient is  0.42649477D+02

 Leave Link  801 at Sun Apr 18 09:13:46 2021, MaxMem=   104857600 cpu:               4.7 elap:               0.1
 (Enter /s/ls4/users/knvvv/bin/g16sse/l914.exe)
 RHF ground state
 Doing stability rather than CIS.
 Two-electron integrals replicated using symmetry.
 MDV=   104857600 DFT=T DoStab=T Mixed=T DoRPA=F DoScal=F NonHer=F
 Making orbital integer symmetry assigments:
 Orbital symmetries:
       Occupied  (T2) (T2) (T2) (A1) (E) (E) (T2) (T2) (T2) (A1)
                 (T2) (T2) (T2) (A1) (T2) (T2) (T2) (A1) (T1) (T1)
                 (T1) (T2) (T2) (T2) (E) (E) (A1) (T2) (T2) (T2)
                 (A1) (T2) (T2) (T2) (E) (E) (T2) (T2) (T2) (A1)
                 (T2) (T2) (T2) (T1) (T1) (T1) (A1) (T2) (T2) (T2)
                 (A1) (T2) (T2) (T2) (E) (E) (T2) (T2) (T2) (T1)
                 (T1) (T1) (E) (E) (T2) (T2) (T2) (T1) (T1) (T1)
       Virtual   (A1) (T2) (T2) (T2) (A1) (E) (E) (T2) (T2) (T2)
                 (E) (E) (T2) (T2) (T2) (A1) (T1) (T1) (T1) (A1)
                 (T2) (T2) (T2) (T1) (T1) (T1) (T2) (T2) (T2) (T2)
                 (T2) (T2) (A1) (T2) (T2) (T2) (E) (E) (T2) (T2)
                 (T2) (T1) (T1) (T1) (A1) (E) (E) (T2) (T2) (T2)
                 (T1) (T1) (T1) (A1) (T2) (T2) (T2) (E) (E) (T2)
                 (T2) (T2) (T1) (T1) (T1) (T2) (T2) (T2) (T1) (T1)
                 (T1) (A1) (E) (E) (T2) (T2) (T2) (A1) (T2) (T2)
                 (T2) (T2) (T2) (T2) (T1) (T1) (T1) (T2) (T2) (T2)
                 (E) (E) (T1) (T1) (T1) (T2) (T2) (T2) (E) (E)
                 (A1) (T2) (T2) (T2) (A2) (T2) (T2) (T2) (A1) (T2)
                 (T2) (T2) (T1) (T1) (T1) (E) (E) (E) (E) (T2)
                 (T2) (T2) (A1) (T1) (T1) (T1) (T1) (T1) (T1) (T2)
                 (T2) (T2) (E) (E) (T1) (T1) (T1) (A1) (T2) (T2)
                 (T2) (T2) (T2) (T2) (A1) (T2) (T2) (T2) (E) (E)
                 (T2) (T2) (T2) (T1) (T1) (T1) (T2) (T2) (T2) (A1)
                 (T1) (T1) (T1) (T2) (T2) (T2) (A1) (T1) (T1) (T1)
                 (E) (E) (T2) (T2) (T2) (E) (E) (T2) (T2) (T2)
                 (T1) (T1) (T1) (T2) (T2) (T2) (A1) (E) (E) (T2)
                 (T2) (T2) (A2) (T2) (T2) (T2) (T1) (T1) (T1) (T1)
                 (T1) (T1) (E) (E) (E) (E) (T2) (T2) (T2) (A1)
                 (T1) (T1) (T1) (T2) (T2) (T2) (E) (E) (T2) (T2)
                 (T2) (T1) (T1) (T1) (T2) (T2) (T2) (E) (E) (A1)
                 (A1) (T2) (T2) (T2) (T2) (T2) (T2) (E) (E) (T1)
                 (T1) (T1) (T1) (T1) (T1) (A1) (T2) (T2) (T2) (E)
                 (E) (T2) (T2) (T2) (A1) (T2) (T2) (T2) (T1) (T1)
                 (T1) (T2) (T2) (T2) (A2) (T1) (T1) (T1) (E) (E)
                 (T2) (T2) (T2) (T2) (T2) (T2) (T1) (T1) (T1) (E)
                 (E) (A1) (A1) (T2) (T2) (T2) (T1) (T1) (T1) (T2)
                 (T2) (T2) (E) (E) (T2) (T2) (T2) (T2) (T2) (T2)
                 (T1) (T1) (T1) (E) (E) (A1) (T1) (T1) (T1) (E)
                 (E) (T2) (T2) (T2) (T2) (T2) (T2) (T1) (T1) (T1)
                 (A2) (T1) (T1) (T1) (A1) (T2) (T2) (T2) (A2) (T1)
                 (T1) (T1) (T2) (T2) (T2) (E) (E) (A1) (T2) (T2)
                 (T2) (A1) (T1) (T1) (T1) (T2) (T2) (T2) (T1) (T1)
                 (T1) (T2) (T2) (T2) (E) (E) (T2) (T2) (T2) (T1)
                 (T1) (T1) (T2) (T2) (T2) (E) (E) (T1) (T1) (T1)
                 (T2) (T2) (T2) (A1) (E) (E) (A1) (T2) (T2) (T2)
                 (T1) (T1) (T1) (E) (E) (T2) (T2) (T2) (T1) (T1)
                 (T1) (T2) (T2) (T2) (A1) (E) (E) (T2) (T2) (T2)
                 (T1) (T1) (T1) (T2) (T2) (T2) (E) (E) (T2) (T2)
                 (T2) (T1) (T1) (T1) (T1) (T1) (T1) (E) (E) (A1)
                 (A2) (T2) (T2) (T2) (T2) (T2) (T2) (E) (E) (T1)
                 (T1) (T1) (T2) (T2) (T2) (E) (E) (T1) (T1) (T1)
                 (A1) (T2) (T2) (T2) (T2) (T2) (T2) (A1) (E) (E)
                 (T1) (T1) (T1) (T2) (T2) (T2) (A1) (T2) (T2) (T2)
                 (T2) (T2) (T2) (T1) (T1) (T1) (E) (E) (A1) (T2)
                 (T2) (T2) (E) (E) (A1) (T2) (T2) (T2) (T2) (T2)
                 (T2) (A1) (A1) (T2) (T2) (T2)
    24 initial guesses have been made.
 Convergence on wavefunction:    0.001000000000000
 Davidson Disk Diagonalization:  ConvIn= 1.00D-03 SkipCon=T Conv= 1.00D-03.
 Max sub-space:  2000 roots to seek:    24 dimension of matrix:        68040
 Iteration     1 Dimension    24 NMult     0 NNew     24
 Estimated number of processors is:   25
 CISAX will form     1 AO SS matrices at one time.
 NMat=     1 NSing=     1 JSym2X= 2.
 FoFJK:  IHMeth= 1 ICntrl=       0 DoSepK=F KAlg= 0 I1Cent=           0 FoldK=F
 IRaf= 890000000 NMat=       1 IRICut=       1 DoRegI=T DoRafI=F ISym2E= 2 IDoP0=0 IntGTp=1.
 FoFCou: FMM=F IPFlag=           0 FMFlag=      100000 FMFlg1=           0
         NFxFlg=           0 DoJE=F BraDBF=F KetDBF=F FulRan=T
         wScrn=  0.000000 ICntrl=         0 IOpCl=  0 I1Cent=           0 NGrid=           0
         NMat0=    1 NMatS0=      1 NMatT0=    0 NMatD0=    1 NMtDS0=    0 NMtDT0=    0
 Integrals replicated using symmetry in FoFCou.
 CoulSu:  requested number of processors reduced to:  34 ShMem   1 Linda.
 CalDSu:  requested number of processors reduced to:  45 ShMem   1 Linda.
 NMat=     1 NSing=     1 JSym2X= 2.
 CoulSu:  requested number of processors reduced to:  34 ShMem   1 Linda.
 CalDSu:  requested number of processors reduced to:  45 ShMem   1 Linda.
 NMat=     1 NSing=     1 JSym2X= 2.
 CoulSu:  requested number of processors reduced to:  34 ShMem   1 Linda.
 CalDSu:  requested number of processors reduced to:  45 ShMem   1 Linda.
 NMat=     1 NSing=     1 JSym2X= 2.
 CoulSu:  requested number of processors reduced to:  34 ShMem   1 Linda.
 CalDSu:  requested number of processors reduced to:  45 ShMem   1 Linda.
 NMat=     1 NSing=     1 JSym2X= 2.
 CoulSu:  requested number of processors reduced to:  34 ShMem   1 Linda.
 CalDSu:  requested number of processors reduced to:  45 ShMem   1 Linda.
 NMat=     1 NSing=     1 JSym2X= 2.
 CoulSu:  requested number of processors reduced to:  34 ShMem   1 Linda.
 CalDSu:  requested number of processors reduced to:  45 ShMem   1 Linda.
 NMat=     1 NSing=     1 JSym2X= 2.
 CoulSu:  requested number of processors reduced to:  35 ShMem   1 Linda.
 CalDSu:  requested number of processors reduced to:  45 ShMem   1 Linda.
 NMat=     1 NSing=     1 JSym2X= 2.
 CoulSu:  requested number of processors reduced to:  34 ShMem   1 Linda.
 CalDSu:  requested number of processors reduced to:  45 ShMem   1 Linda.
 NMat=     1 NSing=     1 JSym2X= 2.
 CoulSu:  requested number of processors reduced to:  34 ShMem   1 Linda.
 CalDSu:  requested number of processors reduced to:  45 ShMem   1 Linda.
 NMat=     1 NSing=     1 JSym2X= 2.
 CoulSu:  requested number of processors reduced to:  34 ShMem   1 Linda.
 CalDSu:  requested number of processors reduced to:  45 ShMem   1 Linda.
 NMat=     1 NSing=     1 JSym2X= 2.
 CoulSu:  requested number of processors reduced to:  34 ShMem   1 Linda.
 CalDSu:  requested number of processors reduced to:  45 ShMem   1 Linda.
 NMat=     1 NSing=     1 JSym2X= 2.
 CoulSu:  requested number of processors reduced to:  34 ShMem   1 Linda.
 CalDSu:  requested number of processors reduced to:  45 ShMem   1 Linda.
 NMat=     1 NSing=     0 JSym2X= 2.
 CoulSu:  requested number of processors reduced to:  34 ShMem   1 Linda.
 CalDSu:  requested number of processors reduced to:  45 ShMem   1 Linda.
 NMat=     1 NSing=     0 JSym2X= 2.
 CoulSu:  requested number of processors reduced to:  34 ShMem   1 Linda.
 CalDSu:  requested number of processors reduced to:  45 ShMem   1 Linda.
 NMat=     1 NSing=     0 JSym2X= 2.
 CoulSu:  requested number of processors reduced to:  34 ShMem   1 Linda.
 CalDSu:  requested number of processors reduced to:  45 ShMem   1 Linda.
 NMat=     1 NSing=     0 JSym2X= 2.
 CoulSu:  requested number of processors reduced to:  34 ShMem   1 Linda.
 CalDSu:  requested number of processors reduced to:  45 ShMem   1 Linda.
 NMat=     1 NSing=     0 JSym2X= 2.
 CoulSu:  requested number of processors reduced to:  34 ShMem   1 Linda.
 CalDSu:  requested number of processors reduced to:  45 ShMem   1 Linda.
 NMat=     1 NSing=     0 JSym2X= 2.
 CoulSu:  requested number of processors reduced to:  34 ShMem   1 Linda.
 CalDSu:  requested number of processors reduced to:  45 ShMem   1 Linda.
 NMat=     1 NSing=     0 JSym2X= 2.
 CoulSu:  requested number of processors reduced to:  35 ShMem   1 Linda.
 CalDSu:  requested number of processors reduced to:  45 ShMem   1 Linda.
 NMat=     1 NSing=     0 JSym2X= 2.
 CoulSu:  requested number of processors reduced to:  34 ShMem   1 Linda.
 CalDSu:  requested number of processors reduced to:  45 ShMem   1 Linda.
 NMat=     1 NSing=     0 JSym2X= 2.
 CoulSu:  requested number of processors reduced to:  34 ShMem   1 Linda.
 CalDSu:  requested number of processors reduced to:  45 ShMem   1 Linda.
 NMat=     1 NSing=     0 JSym2X= 2.
 CoulSu:  requested number of processors reduced to:  34 ShMem   1 Linda.
 CalDSu:  requested number of processors reduced to:  45 ShMem   1 Linda.
 NMat=     1 NSing=     0 JSym2X= 2.
 CoulSu:  requested number of processors reduced to:  34 ShMem   1 Linda.
 CalDSu:  requested number of processors reduced to:  45 ShMem   1 Linda.
 NMat=     1 NSing=     0 JSym2X= 2.
 CoulSu:  requested number of processors reduced to:  34 ShMem   1 Linda.
 CalDSu:  requested number of processors reduced to:  45 ShMem   1 Linda.
 New state      1 was old state      4
 Excitation Energies [eV] at current iteration:
 Root      1 :     8.546786789720056
 Root      2 :     8.555936748171863
 Root      3 :     8.575681433312917
 Root      4 :     8.741901384720082
 Root      5 :     8.750667672026129
 Root      6 :     8.762220108354562
 Root      7 :     8.832243080265535
 Root      8 :     8.882936445678567
 Root      9 :     8.936836718256369
 Root     10 :     9.154525276038060
 Root     11 :     9.227839002692738
 Root     12 :     9.241347000051205
 Root     13 :     9.252764638587179
 Root     14 :     9.268088242065208
 Root     15 :     9.554739765893357
 Root     16 :     9.587777609964995
 Root     17 :    10.869971715149970
 Root     18 :    10.870335585968530
 Root     19 :    10.880024091337890
 Root     20 :    10.910722345687640
 Root     21 :    10.924962879455770
 Root     22 :    10.968224922195170
 Root     23 :    11.071141700084460
 Root     24 :    11.194971039252810
 Iteration     2 Dimension    48 NMult    24 NNew     24
 Estimated number of processors is:   25
 CISAX will form     1 AO SS matrices at one time.
 NMat=     1 NSing=     1 JSym2X= 2.
 CoulSu:  requested number of processors reduced to:  34 ShMem   1 Linda.
 CalDSu:  requested number of processors reduced to:  45 ShMem   1 Linda.
 NMat=     1 NSing=     1 JSym2X= 2.
 CoulSu:  requested number of processors reduced to:  34 ShMem   1 Linda.
 CalDSu:  requested number of processors reduced to:  45 ShMem   1 Linda.
 NMat=     1 NSing=     1 JSym2X= 2.
 CoulSu:  requested number of processors reduced to:  34 ShMem   1 Linda.
 CalDSu:  requested number of processors reduced to:  45 ShMem   1 Linda.
 NMat=     1 NSing=     1 JSym2X= 2.
 CoulSu:  requested number of processors reduced to:  34 ShMem   1 Linda.
 CalDSu:  requested number of processors reduced to:  45 ShMem   1 Linda.
 NMat=     1 NSing=     1 JSym2X= 2.
 CoulSu:  requested number of processors reduced to:  34 ShMem   1 Linda.
 CalDSu:  requested number of processors reduced to:  45 ShMem   1 Linda.
 NMat=     1 NSing=     1 JSym2X= 2.
 CoulSu:  requested number of processors reduced to:  34 ShMem   1 Linda.
 CalDSu:  requested number of processors reduced to:  45 ShMem   1 Linda.
 NMat=     1 NSing=     1 JSym2X= 2.
 CoulSu:  requested number of processors reduced to:  34 ShMem   1 Linda.
 CalDSu:  requested number of processors reduced to:  45 ShMem   1 Linda.
 NMat=     1 NSing=     1 JSym2X= 2.
 CoulSu:  requested number of processors reduced to:  34 ShMem   1 Linda.
 CalDSu:  requested number of processors reduced to:  45 ShMem   1 Linda.
 NMat=     1 NSing=     1 JSym2X= 2.
 CoulSu:  requested number of processors reduced to:  34 ShMem   1 Linda.
 CalDSu:  requested number of processors reduced to:  45 ShMem   1 Linda.
 NMat=     1 NSing=     1 JSym2X= 2.
 CoulSu:  requested number of processors reduced to:  34 ShMem   1 Linda.
 CalDSu:  requested number of processors reduced to:  45 ShMem   1 Linda.
 NMat=     1 NSing=     1 JSym2X= 2.
 CoulSu:  requested number of processors reduced to:  34 ShMem   1 Linda.
 CalDSu:  requested number of processors reduced to:  45 ShMem   1 Linda.
 NMat=     1 NSing=     1 JSym2X= 2.
 CoulSu:  requested number of processors reduced to:  34 ShMem   1 Linda.
 CalDSu:  requested number of processors reduced to:  45 ShMem   1 Linda.
 NMat=     1 NSing=     0 JSym2X= 2.
 CoulSu:  requested number of processors reduced to:  34 ShMem   1 Linda.
 CalDSu:  requested number of processors reduced to:  45 ShMem   1 Linda.
 NMat=     1 NSing=     0 JSym2X= 2.
 CoulSu:  requested number of processors reduced to:  34 ShMem   1 Linda.
 CalDSu:  requested number of processors reduced to:  45 ShMem   1 Linda.
 NMat=     1 NSing=     0 JSym2X= 2.
 CoulSu:  requested number of processors reduced to:  34 ShMem   1 Linda.
 CalDSu:  requested number of processors reduced to:  45 ShMem   1 Linda.
 NMat=     1 NSing=     0 JSym2X= 2.
 CoulSu:  requested number of processors reduced to:  34 ShMem   1 Linda.
 CalDSu:  requested number of processors reduced to:  45 ShMem   1 Linda.
 NMat=     1 NSing=     0 JSym2X= 2.
 CoulSu:  requested number of processors reduced to:  34 ShMem   1 Linda.
 CalDSu:  requested number of processors reduced to:  45 ShMem   1 Linda.
 NMat=     1 NSing=     0 JSym2X= 2.
 CoulSu:  requested number of processors reduced to:  34 ShMem   1 Linda.
 CalDSu:  requested number of processors reduced to:  45 ShMem   1 Linda.
 NMat=     1 NSing=     0 JSym2X= 2.
 CoulSu:  requested number of processors reduced to:  34 ShMem   1 Linda.
 CalDSu:  requested number of processors reduced to:  45 ShMem   1 Linda.
 NMat=     1 NSing=     0 JSym2X= 2.
 CoulSu:  requested number of processors reduced to:  34 ShMem   1 Linda.
 CalDSu:  requested number of processors reduced to:  45 ShMem   1 Linda.
 NMat=     1 NSing=     0 JSym2X= 2.
 CoulSu:  requested number of processors reduced to:  34 ShMem   1 Linda.
 CalDSu:  requested number of processors reduced to:  45 ShMem   1 Linda.
 NMat=     1 NSing=     0 JSym2X= 2.
 CoulSu:  requested number of processors reduced to:  34 ShMem   1 Linda.
 CalDSu:  requested number of processors reduced to:  45 ShMem   1 Linda.
 NMat=     1 NSing=     0 JSym2X= 2.
 CoulSu:  requested number of processors reduced to:  34 ShMem   1 Linda.
 CalDSu:  requested number of processors reduced to:  45 ShMem   1 Linda.
 NMat=     1 NSing=     0 JSym2X= 2.
 CoulSu:  requested number of processors reduced to:  34 ShMem   1 Linda.
 CalDSu:  requested number of processors reduced to:  45 ShMem   1 Linda.
 Root      1 not converged, maximum delta is    0.144701553764598
 Excitation Energies [eV] at current iteration:
 Root      1 :     7.220758204553316   Change is   -1.326028585166740
 Root      2 :     7.222594042731939   Change is   -1.333342705439924
 Root      3 :     7.225442496670192   Change is   -1.350238936642725
 Root      4 :     7.395118479043560   Change is   -1.437124601221975
 Root      5 :     7.406933021338559   Change is   -1.476003424340008
 Root      6 :     7.421668597049148   Change is   -1.515168121207222
 Root      7 :     7.503395988613883   Change is   -1.651129287424176
 Root      8 :     7.528667539872663   Change is   -1.699171462820076
 Root      9 :     8.110394731757918   Change is   -0.631506652962164
 Root     10 :     8.110881573413787   Change is   -0.651338534940776
 Root     11 :     8.111629678587152   Change is   -0.639037993438977
 Root     12 :     8.852938338957246   Change is   -0.388408661093959
 Root     13 :     8.861093677300657   Change is   -0.391670961286523
 Root     14 :     8.894379825254969   Change is   -0.373708416810239
 Root     15 :     9.136835864003841   Change is   -0.417903901889517
 Root     16 :     9.210184545596817   Change is   -0.377593064368177
 Root     17 :     9.318817166516338   Change is   -1.551154548633630
 Root     18 :     9.382430304342002   Change is   -1.487905281626525
 Root     19 :     9.597710004082748   Change is   -1.282314087255138
 Root     20 :    10.099646957631800   Change is   -0.811075388055837
 Root     21 :    10.447594328604980   Change is   -0.477368550850790
 Root     22 :    10.729513313560030   Change is   -0.238711608635134
 Root     23 :    10.889703850872670   Change is   -0.181437849211790
 Root     24 :    10.952880501969320   Change is   -0.242090537283491
 Iteration     3 Dimension    54 NMult    48 NNew      6
 Estimated number of processors is:   25
 CISAX will form     1 AO SS matrices at one time.
 NMat=     1 NSing=     1 JSym2X= 2.
 CoulSu:  requested number of processors reduced to:  34 ShMem   1 Linda.
 CalDSu:  requested number of processors reduced to:  45 ShMem   1 Linda.
 NMat=     1 NSing=     1 JSym2X= 2.
 CoulSu:  requested number of processors reduced to:  34 ShMem   1 Linda.
 CalDSu:  requested number of processors reduced to:  45 ShMem   1 Linda.
 NMat=     1 NSing=     1 JSym2X= 2.
 CoulSu:  requested number of processors reduced to:  34 ShMem   1 Linda.
 CalDSu:  requested number of processors reduced to:  45 ShMem   1 Linda.
 NMat=     1 NSing=     0 JSym2X= 2.
 CoulSu:  requested number of processors reduced to:  34 ShMem   1 Linda.
 CalDSu:  requested number of processors reduced to:  45 ShMem   1 Linda.
 NMat=     1 NSing=     0 JSym2X= 2.
 CoulSu:  requested number of processors reduced to:  34 ShMem   1 Linda.
 CalDSu:  requested number of processors reduced to:  45 ShMem   1 Linda.
 NMat=     1 NSing=     0 JSym2X= 2.
 CoulSu:  requested number of processors reduced to:  34 ShMem   1 Linda.
 CalDSu:  requested number of processors reduced to:  45 ShMem   1 Linda.
 Root      1 not converged, maximum delta is    0.026339226630311
 Excitation Energies [eV] at current iteration:
 Root      1 :     7.094662224541332   Change is   -0.126095980011984
 Root      2 :     7.095399439664139   Change is   -0.127194603067800
 Root      3 :     7.096417737076436   Change is   -0.129024759593757
 Root      4 :     8.061821994144980   Change is   -0.049059579268807
 Root      5 :     8.061927393120918   Change is   -0.049702285466235
 Root      6 :     8.062307429450772   Change is   -0.048087302307146
 Iteration     4 Dimension    60 NMult    54 NNew      6
 Estimated number of processors is:   25
 CISAX will form     1 AO SS matrices at one time.
 NMat=     1 NSing=     1 JSym2X= 2.
 CoulSu:  requested number of processors reduced to:  34 ShMem   1 Linda.
 CalDSu:  requested number of processors reduced to:  45 ShMem   1 Linda.
 NMat=     1 NSing=     1 JSym2X= 2.
 CoulSu:  requested number of processors reduced to:  34 ShMem   1 Linda.
 CalDSu:  requested number of processors reduced to:  45 ShMem   1 Linda.
 NMat=     1 NSing=     1 JSym2X= 2.
 CoulSu:  requested number of processors reduced to:  34 ShMem   1 Linda.
 CalDSu:  requested number of processors reduced to:  45 ShMem   1 Linda.
 NMat=     1 NSing=     0 JSym2X= 2.
 CoulSu:  requested number of processors reduced to:  34 ShMem   1 Linda.
 CalDSu:  requested number of processors reduced to:  45 ShMem   1 Linda.
 NMat=     1 NSing=     0 JSym2X= 2.
 CoulSu:  requested number of processors reduced to:  34 ShMem   1 Linda.
 CalDSu:  requested number of processors reduced to:  45 ShMem   1 Linda.
 NMat=     1 NSing=     0 JSym2X= 2.
 CoulSu:  requested number of processors reduced to:  34 ShMem   1 Linda.
 CalDSu:  requested number of processors reduced to:  45 ShMem   1 Linda.
 Root      1 not converged, maximum delta is    0.010119829407514
 Excitation Energies [eV] at current iteration:
 Root      1 :     7.079312351082855   Change is   -0.015349873458476
 Root      2 :     7.079825102215227   Change is   -0.015574337448912
 Root      3 :     7.080910554988139   Change is   -0.015507182088297
 Root      4 :     8.054902725202782   Change is   -0.006919268942198
 Root      5 :     8.054953612604939   Change is   -0.006973780515979
 Root      6 :     8.056220770157308   Change is   -0.006086659293463
 Iteration     5 Dimension    66 NMult    60 NNew      6
 Estimated number of processors is:   25
 CISAX will form     1 AO SS matrices at one time.
 NMat=     1 NSing=     1 JSym2X= 2.
 CoulSu:  requested number of processors reduced to:  34 ShMem   1 Linda.
 CalDSu:  requested number of processors reduced to:  45 ShMem   1 Linda.
 NMat=     1 NSing=     1 JSym2X= 2.
 CoulSu:  requested number of processors reduced to:  34 ShMem   1 Linda.
 CalDSu:  requested number of processors reduced to:  45 ShMem   1 Linda.
 NMat=     1 NSing=     1 JSym2X= 2.
 CoulSu:  requested number of processors reduced to:  34 ShMem   1 Linda.
 CalDSu:  requested number of processors reduced to:  45 ShMem   1 Linda.
 NMat=     1 NSing=     0 JSym2X= 2.
 CoulSu:  requested number of processors reduced to:  34 ShMem   1 Linda.
 CalDSu:  requested number of processors reduced to:  45 ShMem   1 Linda.
 NMat=     1 NSing=     0 JSym2X= 2.
 CoulSu:  requested number of processors reduced to:  34 ShMem   1 Linda.
 CalDSu:  requested number of processors reduced to:  45 ShMem   1 Linda.
 NMat=     1 NSing=     0 JSym2X= 2.
 CoulSu:  requested number of processors reduced to:  34 ShMem   1 Linda.
 CalDSu:  requested number of processors reduced to:  45 ShMem   1 Linda.
 Root      1 not converged, maximum delta is    0.004020398783190
 Excitation Energies [eV] at current iteration:
 Root      1 :     7.077095567205006   Change is   -0.002216783877849
 Root      2 :     7.077323426423347   Change is   -0.002501675791880
 Root      3 :     7.078060504046639   Change is   -0.002850050941500
 Root      4 :     8.053816840936149   Change is   -0.001085884266633
 Root      5 :     8.053873305605396   Change is   -0.001080306999542
 Root      6 :     8.053956271653034   Change is   -0.002264498504275
 Iteration     6 Dimension    72 NMult    66 NNew      6
 Estimated number of processors is:   25
 CISAX will form     1 AO SS matrices at one time.
 NMat=     1 NSing=     1 JSym2X= 2.
 CoulSu:  requested number of processors reduced to:  34 ShMem   1 Linda.
 CalDSu:  requested number of processors reduced to:  45 ShMem   1 Linda.
 NMat=     1 NSing=     1 JSym2X= 2.
 CoulSu:  requested number of processors reduced to:  34 ShMem   1 Linda.
 CalDSu:  requested number of processors reduced to:  45 ShMem   1 Linda.
 NMat=     1 NSing=     1 JSym2X= 2.
 CoulSu:  requested number of processors reduced to:  34 ShMem   1 Linda.
 CalDSu:  requested number of processors reduced to:  45 ShMem   1 Linda.
 NMat=     1 NSing=     0 JSym2X= 2.
 CoulSu:  requested number of processors reduced to:  34 ShMem   1 Linda.
 CalDSu:  requested number of processors reduced to:  45 ShMem   1 Linda.
 NMat=     1 NSing=     0 JSym2X= 2.
 CoulSu:  requested number of processors reduced to:  34 ShMem   1 Linda.
 CalDSu:  requested number of processors reduced to:  45 ShMem   1 Linda.
 NMat=     1 NSing=     0 JSym2X= 2.
 CoulSu:  requested number of processors reduced to:  34 ShMem   1 Linda.
 CalDSu:  requested number of processors reduced to:  45 ShMem   1 Linda.
 Root      1 not converged, maximum delta is    0.003301487653616
 Excitation Energies [eV] at current iteration:
 Root      1 :     7.076471313630125   Change is   -0.000624253574881
 Root      2 :     7.076492396877650   Change is   -0.000831029545697
 Root      3 :     7.076679294765573   Change is   -0.001381209281066
 Root      4 :     8.053415861947714   Change is   -0.000400978988434
 Root      5 :     8.053452744218118   Change is   -0.000503527434915
 Root      6 :     8.053480617754689   Change is   -0.000392687850708
 Iteration     7 Dimension    78 NMult    72 NNew      6
 Estimated number of processors is:   25
 CISAX will form     1 AO SS matrices at one time.
 NMat=     1 NSing=     1 JSym2X= 2.
 CoulSu:  requested number of processors reduced to:  34 ShMem   1 Linda.
 CalDSu:  requested number of processors reduced to:  45 ShMem   1 Linda.
 NMat=     1 NSing=     1 JSym2X= 2.
 CoulSu:  requested number of processors reduced to:  34 ShMem   1 Linda.
 CalDSu:  requested number of processors reduced to:  45 ShMem   1 Linda.
 NMat=     1 NSing=     1 JSym2X= 2.
 CoulSu:  requested number of processors reduced to:  34 ShMem   1 Linda.
 CalDSu:  requested number of processors reduced to:  45 ShMem   1 Linda.
 NMat=     1 NSing=     0 JSym2X= 2.
 CoulSu:  requested number of processors reduced to:  34 ShMem   1 Linda.
 CalDSu:  requested number of processors reduced to:  45 ShMem   1 Linda.
 NMat=     1 NSing=     0 JSym2X= 2.
 CoulSu:  requested number of processors reduced to:  34 ShMem   1 Linda.
 CalDSu:  requested number of processors reduced to:  45 ShMem   1 Linda.
 NMat=     1 NSing=     0 JSym2X= 2.
 CoulSu:  requested number of processors reduced to:  34 ShMem   1 Linda.
 CalDSu:  requested number of processors reduced to:  45 ShMem   1 Linda.
 New state      1 was old state      2
 Root      1 not converged, maximum delta is    0.015056886076190
 Excitation Energies [eV] at current iteration:
 Root      1 :     7.076368149445332   Change is   -0.000124247432318
 Root      2 :     7.076379510814458   Change is   -0.000091802815666
 Root      3 :     7.076405819573675   Change is   -0.000273475191898
 Root      4 :     8.053281466945025   Change is   -0.000134395002690
 Root      5 :     8.053314927688191   Change is   -0.000165690066496
 Root      6 :     8.053327807249781   Change is   -0.000124936968337
 Iteration     8 Dimension    84 NMult    78 NNew      6
 Estimated number of processors is:   25
 CISAX will form     1 AO SS matrices at one time.
 NMat=     1 NSing=     1 JSym2X= 2.
 CoulSu:  requested number of processors reduced to:  34 ShMem   1 Linda.
 CalDSu:  requested number of processors reduced to:  45 ShMem   1 Linda.
 NMat=     1 NSing=     1 JSym2X= 2.
 CoulSu:  requested number of processors reduced to:  34 ShMem   1 Linda.
 CalDSu:  requested number of processors reduced to:  45 ShMem   1 Linda.
 NMat=     1 NSing=     1 JSym2X= 2.
 CoulSu:  requested number of processors reduced to:  34 ShMem   1 Linda.
 CalDSu:  requested number of processors reduced to:  45 ShMem   1 Linda.
 NMat=     1 NSing=     0 JSym2X= 2.
 CoulSu:  requested number of processors reduced to:  34 ShMem   1 Linda.
 CalDSu:  requested number of processors reduced to:  45 ShMem   1 Linda.
 NMat=     1 NSing=     0 JSym2X= 2.
 CoulSu:  requested number of processors reduced to:  34 ShMem   1 Linda.
[...]
      68 -> 71         0.40466
      68 -> 75        -0.10708
      69 -> 71         0.29317
      70 -> 71         0.35949
 The wavefunction is stable under the perturbations considered.
 Leave Link  914 at Sun Apr 18 09:52:45 2021, MaxMem=   104857600 cpu:           98238.3 elap:            2338.6
 (Enter /s/ls4/users/knvvv/bin/g16sse/l508.exe)
 The wavefunction is already stable.
 Leave Link  508 at Sun Apr 18 09:52:45 2021, MaxMem=   104857600 cpu:               2.3 elap:               0.1
 (Enter /s/ls4/users/knvvv/bin/g16sse/l601.exe)
 Copying SCF densities to generalized density rwf, IOpCl= 0 IROHF=0.

 **********************************************************************

            Population analysis using the SCF density.

 **********************************************************************

 Orbital symmetries:
       Occupied  (T2) (T2) (T2) (A1) (E) (E) (T2) (T2) (T2) (A1)
                 (T2) (T2) (T2) (A1) (T2) (T2) (T2) (A1) (T1) (T1)
                 (T1) (T2) (T2) (T2) (E) (E) (A1) (T2) (T2) (T2)
                 (A1) (T2) (T2) (T2) (E) (E) (T2) (T2) (T2) (A1)
                 (T2) (T2) (T2) (T1) (T1) (T1) (A1) (T2) (T2) (T2)
                 (A1) (T2) (T2) (T2) (E) (E) (T2) (T2) (T2) (T1)
                 (T1) (T1) (E) (E) (T2) (T2) (T2) (T1) (T1) (T1)
       Virtual   (A1) (T2) (T2) (T2) (A1) (E) (E) (T2) (T2) (T2)
                 (E) (E) (T2) (T2) (T2) (A1) (T1) (T1) (T1) (A1)
                 (T2) (T2) (T2) (T1) (T1) (T1) (T2) (T2) (T2) (T2)
                 (T2) (T2) (A1) (T2) (T2) (T2) (E) (E) (T2) (T2)
                 (T2) (T1) (T1) (T1) (A1) (E) (E) (T2) (T2) (T2)
                 (T1) (T1) (T1) (A1) (T2) (T2) (T2) (E) (E) (T2)
                 (T2) (T2) (T1) (T1) (T1) (T2) (T2) (T2) (T1) (T1)
                 (T1) (A1) (E) (E) (T2) (T2) (T2) (A1) (T2) (T2)
                 (T2) (T2) (T2) (T2) (T1) (T1) (T1) (T2) (T2) (T2)
                 (E) (E) (T1) (T1) (T1) (T2) (T2) (T2) (E) (E)
                 (A1) (T2) (T2) (T2) (A2) (T2) (T2) (T2) (A1) (T2)
                 (T2) (T2) (T1) (T1) (T1) (E) (E) (E) (E) (T2)
                 (T2) (T2) (A1) (T1) (T1) (T1) (T1) (T1) (T1) (T2)
                 (T2) (T2) (E) (E) (T1) (T1) (T1) (A1) (T2) (T2)
                 (T2) (T2) (T2) (T2) (A1) (T2) (T2) (T2) (E) (E)
                 (T2) (T2) (T2) (T1) (T1) (T1) (T2) (T2) (T2) (A1)
                 (T1) (T1) (T1) (T2) (T2) (T2) (A1) (T1) (T1) (T1)
                 (E) (E) (T2) (T2) (T2) (E) (E) (T2) (T2) (T2)
                 (T1) (T1) (T1) (T2) (T2) (T2) (A1) (E) (E) (T2)
                 (T2) (T2) (A2) (T2) (T2) (T2) (T1) (T1) (T1) (T1)
                 (T1) (T1) (E) (E) (E) (E) (T2) (T2) (T2) (A1)
                 (T1) (T1) (T1) (T2) (T2) (T2) (E) (E) (T2) (T2)
                 (T2) (T1) (T1) (T1) (T2) (T2) (T2) (E) (E) (A1)
                 (A1) (T2) (T2) (T2) (T2) (T2) (T2) (E) (E) (T1)
                 (T1) (T1) (T1) (T1) (T1) (A1) (T2) (T2) (T2) (E)
                 (E) (T2) (T2) (T2) (A1) (T2) (T2) (T2) (T1) (T1)
                 (T1) (T2) (T2) (T2) (A2) (T1) (T1) (T1) (E) (E)
                 (T2) (T2) (T2) (T2) (T2) (T2) (T1) (T1) (T1) (E)
                 (E) (A1) (A1) (T2) (T2) (T2) (T1) (T1) (T1) (T2)
                 (T2) (T2) (E) (E) (T2) (T2) (T2) (T2) (T2) (T2)
                 (T1) (T1) (T1) (E) (E) (A1) (T1) (T1) (T1) (E)
                 (E) (T2) (T2) (T2) (T2) (T2) (T2) (T1) (T1) (T1)
                 (A2) (T1) (T1) (T1) (A1) (T2) (T2) (T2) (A2) (T1)
                 (T1) (T1) (T2) (T2) (T2) (E) (E) (A1) (T2) (T2)
                 (T2) (A1) (T1) (T1) (T1) (T2) (T2) (T2) (T1) (T1)
                 (T1) (T2) (T2) (T2) (E) (E) (T2) (T2) (T2) (T1)
                 (T1) (T1) (T2) (T2) (T2) (E) (E) (T1) (T1) (T1)
                 (T2) (T2) (T2) (A1) (E) (E) (A1) (T2) (T2) (T2)
                 (T1) (T1) (T1) (E) (E) (T2) (T2) (T2) (T1) (T1)
                 (T1) (T2) (T2) (T2) (A1) (E) (E) (T2) (T2) (T2)
                 (T1) (T1) (T1) (T2) (T2) (T2) (E) (E) (T2) (T2)
                 (T2) (T1) (T1) (T1) (T1) (T1) (T1) (E) (E) (A1)
                 (A2) (T2) (T2) (T2) (T2) (T2) (T2) (E) (E) (T1)
                 (T1) (T1) (T2) (T2) (T2) (E) (E) (T1) (T1) (T1)
                 (A1) (T2) (T2) (T2) (T2) (T2) (T2) (A1) (E) (E)
                 (T1) (T1) (T1) (T2) (T2) (T2) (A1) (T2) (T2) (T2)
                 (T2) (T2) (T2) (T1) (T1) (T1) (E) (E) (A1) (T2)
                 (T2) (T2) (E) (E) (A1) (T2) (T2) (T2) (T2) (T2)
                 (T2) (A1) (A1) (T2) (T2) (T2)
 The electronic state is 1-A1.
 Alpha  occ. eigenvalues --  -78.26761 -78.26761 -78.26761 -78.26761 -19.76480
 Alpha  occ. eigenvalues --  -19.76480 -19.76479 -19.76479 -19.76479 -19.76478
 Alpha  occ. eigenvalues --  -19.67791 -19.67791 -19.67791 -19.67791  -7.06937
 Alpha  occ. eigenvalues --   -7.06937  -7.06937  -7.06936  -5.18941  -5.18941
 Alpha  occ. eigenvalues --   -5.18941  -5.18940  -5.18940  -5.18940  -5.18940
 Alpha  occ. eigenvalues --   -5.18940  -5.18561  -5.18558  -5.18558  -5.18558
 Alpha  occ. eigenvalues --   -1.37183  -1.29527  -1.29527  -1.29527  -1.24194
 Alpha  occ. eigenvalues --   -1.24194  -1.18200  -1.18200  -1.18200  -1.17523
 Alpha  occ. eigenvalues --   -0.85176  -0.85176  -0.85176  -0.74109  -0.74109
 Alpha  occ. eigenvalues --   -0.74109  -0.72723  -0.65529  -0.65529  -0.65529
 Alpha  occ. eigenvalues --   -0.58698  -0.58240  -0.58240  -0.58240  -0.54877
 Alpha  occ. eigenvalues --   -0.54877  -0.53800  -0.53800  -0.53800  -0.53005
 Alpha  occ. eigenvalues --   -0.53005  -0.53005  -0.49058  -0.49058  -0.47827
 Alpha  occ. eigenvalues --   -0.47827  -0.47827  -0.46337  -0.46337  -0.46337
 Alpha virt. eigenvalues --   -0.05445   0.00260   0.00260   0.00260   0.01397
 Alpha virt. eigenvalues --    0.01708   0.01708   0.03717   0.03717   0.03717
 Alpha virt. eigenvalues --    0.04400   0.04400   0.05949   0.05949   0.05949
 Alpha virt. eigenvalues --    0.06267   0.07502   0.07502   0.07502   0.07887
 Alpha virt. eigenvalues --    0.10573   0.10573   0.10573   0.11410   0.11410
 Alpha virt. eigenvalues --    0.11410   0.11841   0.11841   0.11841   0.16293
 Alpha virt. eigenvalues --    0.16293   0.16293   0.17375   0.20123   0.20123
 Alpha virt. eigenvalues --    0.20123   0.21455   0.21455   0.22810   0.22810
 Alpha virt. eigenvalues --    0.22810   0.23424   0.23424   0.23424   0.23434
 Alpha virt. eigenvalues --    0.25438   0.25438   0.26997   0.26997   0.26997
 Alpha virt. eigenvalues --    0.27947   0.27947   0.27947   0.28030   0.28519
 Alpha virt. eigenvalues --    0.28519   0.28519   0.29177   0.29177   0.30737
 Alpha virt. eigenvalues --    0.30737   0.30737   0.31227   0.31227   0.31227
 Alpha virt. eigenvalues --    0.32214   0.32214   0.32214   0.35443   0.35443
 Alpha virt. eigenvalues --    0.35443   0.36543   0.36817   0.36817   0.40127
 Alpha virt. eigenvalues --    0.40127   0.40127   0.43367   0.44284   0.44284
 Alpha virt. eigenvalues --    0.44284   0.47263   0.47263   0.47263   0.48900
 Alpha virt. eigenvalues --    0.48900   0.48900   0.50781   0.50781   0.50781
 Alpha virt. eigenvalues --    0.51085   0.51085   0.60436   0.60436   0.60436
 Alpha virt. eigenvalues --    0.60935   0.60935   0.60935   0.62869   0.62869
 Alpha virt. eigenvalues --    0.65629   0.69891   0.69891   0.69891   0.73541
 Alpha virt. eigenvalues --    0.80095   0.80095   0.80095   0.80739   0.81970
 Alpha virt. eigenvalues --    0.81970   0.81970   0.85730   0.85730   0.85730
 Alpha virt. eigenvalues --    0.86866   0.86866   0.89321   0.89321   0.90283
 Alpha virt. eigenvalues --    0.90283   0.90283   0.91204   0.93792   0.93792
 Alpha virt. eigenvalues --    0.93792   0.96496   0.96496   0.96496   0.96675
 Alpha virt. eigenvalues --    0.96675   0.96675   0.96732   0.96732   0.97633
 Alpha virt. eigenvalues --    0.97633   0.97633   0.98801   1.02233   1.02233
 Alpha virt. eigenvalues --    1.02233   1.06141   1.06141   1.06141   1.09122
 Alpha virt. eigenvalues --    1.09523   1.09523   1.09523   1.12092   1.12092
 Alpha virt. eigenvalues --    1.18260   1.18260   1.18260   1.19713   1.19713
 Alpha virt. eigenvalues --    1.19713   1.23253   1.23253   1.23253   1.23548
 Alpha virt. eigenvalues --    1.26165   1.26165   1.26165   1.26618   1.26618
 Alpha virt. eigenvalues --    1.26618   1.26646   1.29002   1.29002   1.29002
 Alpha virt. eigenvalues --    1.30777   1.30777   1.31559   1.31559   1.31559
 Alpha virt. eigenvalues --    1.34382   1.34382   1.36162   1.36162   1.36162
 Alpha virt. eigenvalues --    1.44950   1.44950   1.44950   1.47885   1.47885
 Alpha virt. eigenvalues --    1.47885   1.51081   1.51861   1.51861   1.60616
 Alpha virt. eigenvalues --    1.60616   1.60616   1.71916   1.72244   1.72244
 Alpha virt. eigenvalues --    1.72244   1.72349   1.72349   1.72349   1.77989
 Alpha virt. eigenvalues --    1.77989   1.77989   1.78015   1.78015   1.80494
 Alpha virt. eigenvalues --    1.80494   1.81186   1.81186   1.81186   1.89724
 Alpha virt. eigenvalues --    1.96351   1.96351   1.96351   1.96651   1.96651
 Alpha virt. eigenvalues --    1.96651   1.99770   1.99770   1.99775   1.99775
 Alpha virt. eigenvalues --    1.99775   2.08805   2.08805   2.08805   2.08951
 Alpha virt. eigenvalues --    2.08951   2.08951   2.09759   2.09759   2.15150
 Alpha virt. eigenvalues --    2.27561   2.29179   2.29179   2.29179   2.31186
 Alpha virt. eigenvalues --    2.31186   2.31186   2.36434   2.36434   2.36639
 Alpha virt. eigenvalues --    2.36639   2.36639   2.42560   2.42560   2.42560
 Alpha virt. eigenvalues --    2.44679   2.51689   2.51689   2.51689   2.54455
 Alpha virt. eigenvalues --    2.54455   2.58657   2.58657   2.58657   2.71103
 Alpha virt. eigenvalues --    2.79906   2.79906   2.79906   2.82998   2.82998
 Alpha virt. eigenvalues --    2.82998   2.93122   2.93122   2.93122   2.99695
 Alpha virt. eigenvalues --    3.02649   3.02649   3.02649   3.03905   3.03905
 Alpha virt. eigenvalues --    3.07294   3.07294   3.07294   3.11481   3.11481
 Alpha virt. eigenvalues --    3.11481   3.12369   3.12369   3.12369   3.17510
 Alpha virt. eigenvalues --    3.17510   3.24497   3.32388   3.38361   3.38361
 Alpha virt. eigenvalues --    3.38361   4.08363   4.08363   4.08363   4.13297
 Alpha virt. eigenvalues --    4.13297   4.13297   4.17396   4.17396   4.39363
 Alpha virt. eigenvalues --    4.39363   4.39363   4.49375   4.49375   4.49375
 Alpha virt. eigenvalues --    4.51341   4.51341   4.51341   4.56085   4.56085
 Alpha virt. eigenvalues --    4.56113   4.91828   4.91828   4.91828   4.92361
 Alpha virt. eigenvalues --    4.92361   4.96322   4.96322   4.96322   4.97369
 Alpha virt. eigenvalues --    4.97369   4.97369   4.98999   4.98999   4.98999
 Alpha virt. eigenvalues --    5.01460   5.03881   5.03881   5.03881   5.04679
 Alpha virt. eigenvalues --    5.06516   5.06516   5.06516   5.06735   5.09207
 Alpha virt. eigenvalues --    5.09207   5.09207   5.09578   5.09578   5.09578
 Alpha virt. eigenvalues --    5.11098   5.11098   5.12114   5.12253   5.12253
 Alpha virt. eigenvalues --    5.12253   5.15390   5.15690   5.15690   5.15690
 Alpha virt. eigenvalues --    5.16994   5.16994   5.16994   5.17266   5.17266
 Alpha virt. eigenvalues --    5.17266   5.19838   5.19838   5.19838   5.19940
 Alpha virt. eigenvalues --    5.19940   5.20821   5.20821   5.20821   5.27609
 Alpha virt. eigenvalues --    5.27609   5.27609   5.27626   5.27626   5.27626
 Alpha virt. eigenvalues --    5.29739   5.29739   5.34068   5.34068   5.34068
 Alpha virt. eigenvalues --    5.37225   5.37225   5.37225   5.38692   5.39865
 Alpha virt. eigenvalues --    5.39865   5.50065   5.51210   5.51210   5.51210
 Alpha virt. eigenvalues --    5.52892   5.52892   5.52892   5.54060   5.54060
 Alpha virt. eigenvalues --    5.59455   5.59455   5.59455   5.66604   5.66604
 Alpha virt. eigenvalues --    5.66604   5.71282   5.71282   5.71282   6.08189
 Alpha virt. eigenvalues --    6.16876   6.16876   6.19738   6.19738   6.19738
 Alpha virt. eigenvalues --    6.21980   6.21980   6.21980   6.37329   6.37329
 Alpha virt. eigenvalues --    6.37329   6.82794   6.82794   6.86002   6.86002
 Alpha virt. eigenvalues --    6.86002   6.87202   6.87202   6.87202   6.91499
 Alpha virt. eigenvalues --    6.91499   6.91499   6.92251   6.92251   6.92307
 Alpha virt. eigenvalues --    6.97165   7.02921   7.02921   7.02921   7.06912
 Alpha virt. eigenvalues --    7.06912   7.06912   7.08156   7.08156   7.11326
 Alpha virt. eigenvalues --    7.11326   7.11326   7.18339   7.18339   7.18339
 Alpha virt. eigenvalues --    7.31072   7.31072   7.32358   7.32358   7.32358
 Alpha virt. eigenvalues --    7.35842   7.38785   7.38785   7.38785   7.49549
 Alpha virt. eigenvalues --    7.49549   7.49549   7.50202   7.52438   7.52438
 Alpha virt. eigenvalues --    7.53587   7.53587   7.53587   7.60412   7.60412
 Alpha virt. eigenvalues --    7.60412   8.62398   8.69889   8.69889   8.69889
 Alpha virt. eigenvalues --   13.53204  13.53204  13.53204  13.54990  13.54990
 Alpha virt. eigenvalues --   13.54990  13.59941  13.59941  14.08943  14.15382
 Alpha virt. eigenvalues --   14.15382  14.15382  50.08863  50.08863  50.11171
 Alpha virt. eigenvalues --   50.13669  50.13669  50.13669  50.24979  50.24979
 Alpha virt. eigenvalues --   50.24979  50.29944 164.98393 165.19146 165.19146
 Alpha virt. eigenvalues --  165.19146
          Condensed to atoms (all electrons):
               1          2          3          4          5          6
     1  P   13.178853   0.074893  -0.104479   0.063667  -0.104479   0.074893
     2  O    0.074893   8.816919   0.074893  -0.048399   0.063667  -0.048399
     3  P   -0.104479   0.074893  13.178853   0.074893  -0.104479   0.063667
     4  O    0.063667  -0.048399   0.074893   8.816919   0.074893  -0.048399
     5  P   -0.104479   0.063667  -0.104479   0.074893  13.178853   0.074893
     6  O    0.074893  -0.048399   0.063667  -0.048399   0.074893   8.816919
     7  O    0.063667  -0.048399   0.074893  -0.048399   0.063667  -0.157166
     8  P   -0.104479   0.063667  -0.104479   0.063667  -0.104479   0.063667
     9  O    0.063667  -0.157166   0.063667  -0.048399   0.074893  -0.048399
    10  O    0.074893  -0.048399   0.063667  -0.157166   0.063667  -0.048399
    11  O   -0.024156   0.016287  -0.024156   0.016287  -0.024156   0.016287
    12  O    0.400085  -0.059910  -0.024156   0.016287  -0.024156  -0.059910
    13  O   -0.024156  -0.059910   0.400085  -0.059910  -0.024156   0.016287
    14  O   -0.024156   0.016287  -0.024156  -0.059910   0.400085  -0.059910
               7          8          9         10         11         12
     1  P    0.063667  -0.104479   0.063667   0.074893  -0.024156   0.400085
     2  O   -0.048399   0.063667  -0.157166  -0.048399   0.016287  -0.059910
     3  P    0.074893  -0.104479   0.063667   0.063667  -0.024156  -0.024156
     4  O   -0.048399   0.063667  -0.048399  -0.157166   0.016287   0.016287
     5  P    0.063667  -0.104479   0.074893   0.063667  -0.024156  -0.024156
     6  O   -0.157166   0.063667  -0.048399  -0.048399   0.016287  -0.059910
     7  O    8.816919   0.074893  -0.048399  -0.048399  -0.059910   0.016287
     8  P    0.074893  13.178853   0.074893   0.074893   0.400085  -0.024156
     9  O   -0.048399   0.074893   8.816919  -0.048399  -0.059910   0.016287
    10  O   -0.048399   0.074893  -0.048399   8.816919  -0.059910  -0.059910
    11  O   -0.059910   0.400085  -0.059910  -0.059910   8.221872  -0.003792
    12  O    0.016287  -0.024156   0.016287  -0.059910  -0.003792   8.221872
    13  O   -0.059910  -0.024156   0.016287   0.016287  -0.003792  -0.003792
    14  O    0.016287  -0.024156  -0.059910   0.016287  -0.003792  -0.003792
              13         14
     1  P   -0.024156  -0.024156
     2  O   -0.059910   0.016287
     3  P    0.400085  -0.024156
     4  O   -0.059910  -0.059910
     5  P   -0.024156   0.400085
     6  O    0.016287  -0.059910
     7  O   -0.059910   0.016287
     8  P   -0.024156  -0.024156
     9  O    0.016287  -0.059910
    10  O    0.016287   0.016287
    11  O   -0.003792  -0.003792
    12  O   -0.003792  -0.003792
    13  O    8.221872  -0.003792
    14  O   -0.003792   8.221872
 Mulliken charges:
               1
     1  P    1.391286
     2  O   -0.656030
     3  P    1.391286
     4  O   -0.656030
     5  P    1.391286
     6  O   -0.656030
     7  O   -0.656030
     8  P    1.391286
     9  O   -0.656030
    10  O   -0.656030
    11  O   -0.407241
    12  O   -0.407241
    13  O   -0.407241
    14  O   -0.407241
 Sum of Mulliken charges =   0.00000
 Mulliken charges with hydrogens summed into heavy atoms:
               1
     1  P    1.391286
     2  O   -0.656030
     3  P    1.391286
     4  O   -0.656030
     5  P    1.391286
     6  O   -0.656030
     7  O   -0.656030
     8  P    1.391286
     9  O   -0.656030
    10  O   -0.656030
    11  O   -0.407241
    12  O   -0.407241
    13  O   -0.407241
    14  O   -0.407241
 Electronic spatial extent (au):  <R**2>=           2647.1417
 Charge=             -0.0000 electrons
 Dipole moment (field-independent basis, Debye):
    X=             -0.0000    Y=              0.0000    Z=             -0.0000  Tot=              0.0000
 Quadrupole moment (field-independent basis, Debye-Ang):
   XX=           -114.7440   YY=           -114.7440   ZZ=           -114.7440
   XY=             -0.0000   XZ=              0.0000   YZ=             -0.0000
 Traceless Quadrupole moment (field-independent basis, Debye-Ang):
   XX=              0.0000   YY=              0.0000   ZZ=             -0.0000
   XY=             -0.0000   XZ=              0.0000   YZ=             -0.0000
 Octapole moment (field-independent basis, Debye-Ang**2):
  XXX=             -0.0000  YYY=              0.0000  ZZZ=             -0.0000  XYY=             -0.0000
  XXY=             -0.0000  XXZ=             -0.0000  XZZ=             -0.0000  YZZ=             -0.0000
  YYZ=             -0.0000  XYZ=             35.7051
 Hexadecapole moment (field-independent basis, Debye-Ang**3):
 XXXX=          -1124.2826 YYYY=          -1124.2826 ZZZZ=          -1124.2826 XXXY=              0.0000
 XXXZ=             -0.0000 YYYX=             -0.0000 YYYZ=              0.0000 ZZZX=              0.0000
 ZZZY=             -0.0000 XXYY=           -414.6044 XXZZ=           -414.6044 YYZZ=           -414.6044
 XXYZ=              0.0000 YYXZ=              0.0000 ZZXY=             -0.0000
 N-N= 1.790826933532D+03 E-N=-8.598231887889D+03  KE= 2.113137641033D+03
 PrsmSu:  requested number of processors reduced to:  44 ShMem   1 Linda.
 No NMR shielding tensors so no spin-rotation constants.
 Leave Link  601 at Sun Apr 18 09:53:05 2021, MaxMem=   104857600 cpu:             921.8 elap:              19.7
 (Enter /s/ls4/users/knvvv/bin/g16sse/l9999.exe)

 Test job not archived.
 1\1\GINC-N178\Stability\RM062X\Gen\O10P4\KNVVV\18-Apr-2021\0\\#P M062X
 /GEN Integral=UltraFineGrid SCF=NoSymm Stable=(RExt, Opt) IOp(1/33=1)\
 \Database calculations.\\0,1\P,0,1.01976,-1.01976,1.01976\O,0,0.,0.,1.
 77701\P,0,-1.01976,1.01976,1.01976\O,0,0.,1.77701,0.\P,0,1.01976,1.019
 76,-1.01976\O,0,1.77701,0.,0.\O,0,-1.77701,0.,0.\P,0,-1.01976,-1.01976
 ,-1.01976\O,0,0.,0.,-1.77701\O,0,0.,-1.77701,0.\O,0,-1.85644,-1.85644,
 -1.85644\O,0,1.85644,-1.85644,1.85644\O,0,-1.85644,1.85644,1.85644\O,0
 ,1.85644,1.85644,-1.85644\\Version=ES64L-G16RevA.03\State=1-A1\HF=-211
 8.1407279\RMSD=3.118e-09\Dipole=0.,0.,0.\Quadrupole=0.,0.,0.,0.,0.,0.\
 PG=TD [4C3(O1P1.),3C2(O1.O1)]\\@


 FROM AN ANONYMOUS WRITER, ON PERSPECTIVE:

 MAN, DESPITE HIS ARTISTIC PRETENSIONS, HIS SOPHISTICATION AND MANY 
 ACCOMPLISHMENTS, OWES THE FACT OF HIS EXISTENCE TO A SIX-INCH LAYER OF 
 TOPSOIL AND THE FACT THAT IT RAINS.
 Job cpu time:       1 days  5 hours 40 minutes 16.3 seconds.
 Elapsed time:       0 days  0 hours 42 minutes  2.2 seconds.
 File lengths (MBytes):  RWF=   1614 Int=      0 D2E=      0 Chk=     82 Scr=      1
 Normal termination of Gaussian 16 at Sun Apr 18 09:53:05 2021.
