 Entering Gaussian System, Link 0=/s/ls4/users/knvvv/bin/g16sse/g16
 Input=data/database/M062X--def2-QZVPPD--11_H_AE18.gjf
 Output=data/database/M062X--def2-QZVPPD--11_H_AE18.log
 Initial command:
 /s/ls4/users/knvvv/bin/g16sse/l1.exe "/s/ls4/users/knvvv/bin/scratch/Gau-15614.inp" -scrdir="/s/ls4/users/knvvv/bin/scratch/"
 Entering Link 1 = /s/ls4/users/knvvv/bin/g16sse/l1.exe PID=     15615.
  
 Copyright (c) 1988,1990,1992,1993,1995,1998,2003,2009,2016,
            Gaussian, Inc.  All Rights Reserved.
  
 This is part of the Gaussian(R) 16 program.  It is based on
 the Gaussian(R) 09 system (copyright 2009, Gaussian, Inc.),
 the Gaussian(R) 03 system (copyright 2003, Gaussian, Inc.),
 the Gaussian(R) 98 system (copyright 1998, Gaussian, Inc.),
 the Gaussian(R) 94 system (copyright 1995, Gaussian, Inc.),
 the Gaussian 92(TM) system (copyright 1992, Gaussian, Inc.),
 the Gaussian 90(TM) system (copyright 1990, Gaussian, Inc.),
 the Gaussian 88(TM) system (copyright 1988, Gaussian, Inc.),
 the Gaussian 86(TM) system (copyright 1986, Carnegie Mellon
 University), and the Gaussian 82(TM) system (copyright 1983,
 Carnegie Mellon University). Gaussian is a federally registered
 trademark of Gaussian, Inc.
  
 This software contains proprietary and confidential information,
 including trade secrets, belonging to Gaussian, Inc.
  
 This software is provided under written license and may be
 used, copied, transmitted, or stored only in accord with that
 written license.
  
 The following legend is applicable only to US Government
 contracts under FAR:
  
                    RESTRICTED RIGHTS LEGEND
  
 Use, reproduction and disclosure by the US Government is
 subject to restrictions as set forth in subparagraphs (a)
 and (c) of the Commercial Computer Software - Restricted
 Rights clause in FAR 52.227-19.
  
 Gaussian, Inc.
 340 Quinnipiac St., Bldg. 40, Wallingford CT 06492
  
  
 ---------------------------------------------------------------
 Warning -- This program may not be used in any manner that
 competes with the business of Gaussian, Inc. or will provide
 assistance to any competitor of Gaussian, Inc.  The licensee
 of this program is prohibited from giving any competitor of
 Gaussian, Inc. access to this program.  By using this program,
 the user acknowledges that Gaussian, Inc. is engaged in the
 business of creating and licensing software in the field of
 computational chemistry and represents and warrants to the
 licensee that it is not a competitor of Gaussian, Inc. and that
 it will not use this program in any manner prohibited above.
 ---------------------------------------------------------------
  

 Cite this work as:
 Gaussian 16, Revision A.03,
 M. J. Frisch, G. W. Trucks, H. B. Schlegel, G. E. Scuseria, 
 M. A. Robb, J. R. Cheeseman, G. Scalmani, V. Barone, 
 G. A. Petersson, H. Nakatsuji, X. Li, M. Caricato, A. V. Marenich, 
 J. Bloino, B. G. Janesko, R. Gomperts, B. Mennucci, H. P. Hratchian, 
 J. V. Ortiz, A. F. Izmaylov, J. L. Sonnenberg, D. Williams-Young, 
 F. Ding, F. Lipparini, F. Egidi, J. Goings, B. Peng, A. Petrone, 
 T. Henderson, D. Ranasinghe, V. G. Zakrzewski, J. Gao, N. Rega, 
 G. Zheng, W. Liang, M. Hada, M. Ehara, K. Toyota, R. Fukuda, 
 J. Hasegawa, M. Ishida, T. Nakajima, Y. Honda, O. Kitao, H. Nakai, 
 T. Vreven, K. Throssell, J. A. Montgomery, Jr., J. E. Peralta, 
 F. Ogliaro, M. J. Bearpark, J. J. Heyd, E. N. Brothers, K. N. Kudin, 
 V. N. Staroverov, T. A. Keith, R. Kobayashi, J. Normand, 
 K. Raghavachari, A. P. Rendell, J. C. Burant, S. S. Iyengar, 
 J. Tomasi, M. Cossi, J. M. Millam, M. Klene, C. Adamo, R. Cammi, 
 J. W. Ochterski, R. L. Martin, K. Morokuma, O. Farkas, 
 J. B. Foresman, and D. J. Fox, Gaussian, Inc., Wallingford CT, 2016.
 
 ******************************************
 Gaussian 16:  ES64L-G16RevA.03 25-Dec-2016
                17-Apr-2021 
 ******************************************
 %RWF=temp6_86763,70GB
 %nprocshared=48
 Will use up to   48 processors via shared memory.
 Default route: MaxDisk=80GB
 ----------------------------------------------------------------------
 #P M062X/GEN Integral=UltraFineGrid SCF=NoSymm Stable=(RExt, Opt) IOp(
 1/33=1)
 ----------------------------------------------------------------------
 1/33=1,38=1,172=1/1;
 2/12=2,17=6,18=5,40=1/2;
 3/5=7,11=2,25=1,30=1,74=-55,75=-5/1,2,3;
 4/9=2/1;
 5/5=2,38=5/2;
 6/7=2,8=2,9=2,10=2,28=1/1;
 8/6=1,10=90,11=11/1;
 9/8=-3,42=1,46=1/14;
 5/5=2,8=3,17=40,38=5/8(-2);
 6/7=2,8=2,9=2,10=2,28=1/1;
 99/5=1,9=1/99;
 Leave Link    1 at Sat Apr 17 07:10:12 2021, MaxMem=           0 cpu:              11.8 elap:               0.3
 (Enter /s/ls4/users/knvvv/bin/g16sse/l101.exe)
 ONIOM data not found on unit 2.
 ----------------------
 Database calculations.
 ----------------------
 TstMul:  ICh=     0
 TstMul:  Mul=     2
 TstMul:  ICh=     0
 TstMul:  Mul=     2
 Symbolic Z-matrix:
 Charge =  0 Multiplicity = 2
 H                     0.        0.        0. 
 
 RdStrC is calling ZToCFu for IStruc=1 NZ=     1.
 PrtBox:  NBox=     1 Levels=  0 BoxLen=    8.00 SMaxX=        0.00
          Shift=            0.000000            0.000000            0.000000
 Box      1 Number                   0 centers from      1 to      1:
 After GenITR:
 ITRead=  0
 MicOpt= -1
 ITRead=  0
 MicOpt= -1
 NAtoms=      1 NQM=        1 NQMF=       0 NMMI=      0 NMMIF=      0
                NMic=       0 NMicF=      0.
                    Isotopes and Nuclear Properties:
 (Nuclear quadrupole moments (NQMom) in fm**2, nuclear magnetic moments (NMagM)
  in nuclear magnetons)

  Atom         1
 IAtWgt=           1
 AtmWgt=   1.0078250
 NucSpn=           1
 AtZEff=  -0.0000000
 NQMom=    0.0000000
 NMagM=    2.7928460
 AtZNuc=   1.0000000
 No MM parameters found.
 Leave Link  101 at Sat Apr 17 07:10:12 2021, MaxMem=   104857600 cpu:               6.5 elap:               0.2
 (Enter /s/ls4/users/knvvv/bin/g16sse/l202.exe)
                          Input orientation:                          
 ---------------------------------------------------------------------
 Center     Atomic      Atomic             Coordinates (Angstroms)
 Number     Number       Type             X           Y           Z
 ---------------------------------------------------------------------
      1          1           0        0.000000    0.000000    0.000000
 ---------------------------------------------------------------------
 Stoichiometry    H(2)
 Framework group  OH[O(H)]
 Deg. of freedom     0
 Full point group                 OH      NOp  48
 Largest Abelian subgroup         D2H     NOp   8
 Largest concise Abelian subgroup C1      NOp   1
                         Standard orientation:                         
 ---------------------------------------------------------------------
 Center     Atomic      Atomic             Coordinates (Angstroms)
 Number     Number       Type             X           Y           Z
 ---------------------------------------------------------------------
      1          1           0        0.000000    0.000000    0.000000
 ---------------------------------------------------------------------
 Leave Link  202 at Sat Apr 17 07:10:13 2021, MaxMem=   104857600 cpu:              35.9 elap:               0.8
 (Enter /s/ls4/users/knvvv/bin/g16sse/l301.exe)
 General basis read from cards:  (5D, 7F)
 Centers:       1
 S 4 1.00
     Exponent=  1.9069169000D+02 Coefficients=  7.0815167000D-04
     Exponent=  2.8605532000D+01 Coefficients=  5.4678827000D-03
     Exponent=  6.5095943000D+00 Coefficients=  2.7966605000D-02
     Exponent=  1.8412455000D+00 Coefficients=  1.0764538000D-01
 S 1 1.00
     Exponent=  5.9853725000D-01 Coefficients=  1.0000000000D+00
 S 1 1.00
     Exponent=  2.1397624000D-01 Coefficients=  1.0000000000D+00
 S 1 1.00
     Exponent=  8.0316286000D-02 Coefficients=  1.0000000000D+00
 P 1 1.00
     Exponent=  2.2920000000D+00 Coefficients=  1.0000000000D+00
 P 1 1.00
     Exponent=  8.3800000000D-01 Coefficients=  1.0000000000D+00
 P 1 1.00
     Exponent=  2.9200000000D-01 Coefficients=  1.0000000000D+00
 P 1 1.00
     Exponent=  8.4063199228D-02 Coefficients=  1.0000000000D+00
 D 1 1.00
     Exponent=  2.0620000000D+00 Coefficients=  1.0000000000D+00
 D 1 1.00
     Exponent=  6.6200000000D-01 Coefficients=  1.0000000000D+00
 F 1 1.00
     Exponent=  1.3970000000D+00 Coefficients=  1.0000000000D+00
 ****
 Ernie: Thresh=  0.10000D-02 Tol=  0.10000D-05 Strict=F.
 There are    10 symmetry adapted cartesian basis functions of AG  symmetry.
 There are     2 symmetry adapted cartesian basis functions of B1G symmetry.
 There are     2 symmetry adapted cartesian basis functions of B2G symmetry.
 There are     2 symmetry adapted cartesian basis functions of B3G symmetry.
 There are     1 symmetry adapted cartesian basis functions of AU  symmetry.
 There are     7 symmetry adapted cartesian basis functions of B1U symmetry.
 There are     7 symmetry adapted cartesian basis functions of B2U symmetry.
 There are     7 symmetry adapted cartesian basis functions of B3U symmetry.
 There are     8 symmetry adapted basis functions of AG  symmetry.
 There are     2 symmetry adapted basis functions of B1G symmetry.
 There are     2 symmetry adapted basis functions of B2G symmetry.
 There are     2 symmetry adapted basis functions of B3G symmetry.
 There are     1 symmetry adapted basis functions of AU  symmetry.
 There are     6 symmetry adapted basis functions of B1U symmetry.
 There are     6 symmetry adapted basis functions of B2U symmetry.
 There are     6 symmetry adapted basis functions of B3U symmetry.
    33 basis functions,    41 primitive gaussians,    38 cartesian basis functions
     1 alpha electrons        0 beta electrons
       nuclear repulsion energy         0.0000000000 Hartrees.
 IExCor= 4336 DFT=T Ex+Corr=M062X ExCW=0 ScaHFX=  0.540000
 ScaDFX=  1.000000  1.000000  1.000000  1.000000 ScalE2=  1.000000  1.000000
 IRadAn=      5 IRanWt=     -1 IRanGd=            0 ICorTp=0 IEmpDi=  4
 NAtoms=    1 NActive=    1 NUniq=    1 SFac= 1.00D+00 NAtFMM=   60 NAOKFM=F Big=F
 Integral buffers will be    131072 words long.
 Raffenetti 2 integral format.
 Two-electron integral symmetry is turned on.
 Leave Link  301 at Sat Apr 17 07:10:13 2021, MaxMem=   104857600 cpu:               7.3 elap:               0.2
 (Enter /s/ls4/users/knvvv/bin/g16sse/l302.exe)
 NPDir=0 NMtPBC=     1 NCelOv=     1 NCel=       1 NClECP=     1 NCelD=      1
         NCelK=      1 NCelE2=     1 NClLst=     1 CellRange=     0.0.
 One-electron integrals computed using PRISM.
 One-electron integral symmetry used in STVInt
 PrsmSu:  requested number of processors reduced to:  13 ShMem   1 Linda.
 NBasis=    33 RedAO= T EigKep=  3.39D-02  NBF=     8     2     2     2     1     6     6     6
 NBsUse=    33 1.00D-06 EigRej= -1.00D+00 NBFU=     8     2     2     2     1     6     6     6
 Precomputing XC quadrature grid using
 IXCGrd= 4 IRadAn=           5 IRanWt=          -1 IRanGd=           0 AccXCQ= 0.00D+00.
 Generated NRdTot=       0 NPtTot=           0 NUsed=           0 NTot=          32
 NSgBfM=    38    38    38    38    38 MxSgAt=     1 MxSgA2=     1.
 Leave Link  302 at Sat Apr 17 07:10:16 2021, MaxMem=   104857600 cpu:             144.5 elap:               3.1
 (Enter /s/ls4/users/knvvv/bin/g16sse/l303.exe)
 DipDrv:  MaxL=1.
 Leave Link  303 at Sat Apr 17 07:10:16 2021, MaxMem=   104857600 cpu:              12.5 elap:               0.3
 (Enter /s/ls4/users/knvvv/bin/g16sse/l401.exe)
 SCF N**3 symmetry information disabled.
 ExpMin= 8.03D-02 ExpMax= 1.91D+02 ExpMxC= 2.86D+01 IAcc=3 IRadAn=         5 AccDes= 0.00D+00
 Harris functional with IExCor= 1009 and IRadAn=       5 diagonalized for initial guess.
 HarFok:  IExCor= 1009 AccDes= 0.00D+00 IRadAn=         5 IDoV= 1 UseB2=F ITyADJ=14
 ICtDFT=  3500011 ScaDFX=  1.000000  1.000000  1.000000  1.000000
 FoFCou: FMM=F IPFlag=           0 FMFlag=      100000 FMFlg1=           0
         NFxFlg=           0 DoJE=T BraDBF=F KetDBF=T FulRan=T
         wScrn=  0.000000 ICntrl=       500 IOpCl=  0 I1Cent=   200000004 NGrid=           0
         NMat0=    1 NMatS0=      1 NMatT0=    0 NMatD0=    1 NMtDS0=    0 NMtDT0=    0
 Petite list used in FoFCou.
 Harris En=-0.459084980400948    
 JPrj=0 DoOrth=F DoCkMO=F.
 Initial guess orbital symmetries:
 Alpha Orbitals:
       Occupied  (A1G)
       Virtual   (T1U) (T1U) (T1U) (A1G) (T1U) (T1U) (T1U) (A1G)
                 (T2G) (T2G) (T2G) (EG) (EG) (T1U) (T1U) (T1U)
                 (A1G) (T2U) (T2U) (T2U) (A2U) (T1U) (T1U) (T1U)
                 (T1U) (T1U) (T1U) (T2G) (T2G) (T2G) (EG) (EG)
 Beta  Orbitals:
       Virtual   (A1G) (T1U) (T1U) (T1U) (A1G) (T1U) (T1U) (T1U)
                 (A1G) (T2G) (T2G) (T2G) (EG) (EG) (T1U) (T1U)
                 (T1U) (A1G) (T2U) (T2U) (T2U) (A2U) (T1U) (T1U)
                 (T1U) (T1U) (T1U) (T1U) (T2G) (T2G) (T2G) (EG)
                 (EG)
 The electronic state of the initial guess is 2-A1G.
 Initial guess <Sx>= 0.0000 <Sy>= 0.0000 <Sz>= 0.5000 <S**2>= 0.7500 S= 0.5000
 Leave Link  401 at Sat Apr 17 07:10:20 2021, MaxMem=   104857600 cpu:             157.2 elap:               3.4
 (Enter /s/ls4/users/knvvv/bin/g16sse/l502.exe)
 Keep R1 and R2 ints in memory in symmetry-blocked form, NReq=41613413.
 FoFCou: FMM=F IPFlag=           0 FMFlag=           0 FMFlg1=           0
         NFxFlg=           0 DoJE=F BraDBF=F KetDBF=F FulRan=T
         wScrn=  0.000000 ICntrl=       600 IOpCl=  0 I1Cent=           0 NGrid=           0
         NMat0=    1 NMatS0=    561 NMatT0=    0 NMatD0=    1 NMtDS0=    0 NMtDT0=    0
 Petite list used in FoFCou.
 UHF open shell SCF:
 Using DIIS extrapolation, IDIIS=  1040.
 NGot=   104857600 LenX=   104804546 LenY=   104802661
 Requested convergence on RMS density matrix=1.00D-08 within 128 cycles.
 Requested convergence on MAX density matrix=1.00D-06.
 Requested convergence on             energy=1.00D-06.
 No special actions if energy rises.
 Integral accuracy reduced to 1.0D-05 until final iterations.

 Cycle   1  Pass 0  IDiag  1:
 E=-0.496543315936029    
 DIIS: error= 2.22D-02 at cycle   1 NSaved=   1.
 NSaved= 1 IEnMin= 1 EnMin=-0.496543315936029     IErMin= 1 ErrMin= 2.22D-02
 ErrMax= 2.22D-02  0.00D+00 EMaxC= 1.00D-01 BMatC= 6.06D-03 BMatP= 6.06D-03
 IDIUse=3 WtCom= 7.78D-01 WtEn= 2.22D-01
 Coeff-Com:  0.100D+01
 Coeff-En:   0.100D+01
 Coeff:      0.100D+01
 Gap=     0.525 Goal=   None    Shift=    0.000
 GapD=    0.525 DampG=2.000 DampE=0.500 DampFc=1.0000 IDamp=-1.
 RMSDP=1.92D-03 MaxDP=5.27D-02              OVMax= 5.14D-02

 Cycle   2  Pass 0  IDiag  1:
 E=-0.498745616727236     Delta-E=       -0.002202300791 Rises=F Damp=F
 DIIS: error= 3.65D-03 at cycle   2 NSaved=   2.
 NSaved= 2 IEnMin= 2 EnMin=-0.498745616727236     IErMin= 2 ErrMin= 3.65D-03
 ErrMax= 3.65D-03  0.00D+00 EMaxC= 1.00D-01 BMatC= 1.15D-04 BMatP= 6.06D-03
 IDIUse=3 WtCom= 9.64D-01 WtEn= 3.65D-02
 Coeff-Com:  0.420D-01 0.958D+00
 Coeff-En:   0.000D+00 0.100D+01
 Coeff:      0.405D-01 0.960D+00
 Gap=     0.522 Goal=   None    Shift=    0.000
 RMSDP=4.01D-04 MaxDP=1.22D-02 DE=-2.20D-03 OVMax= 9.22D-03

 Cycle   3  Pass 0  IDiag  1:
 E=-0.498814908554012     Delta-E=       -0.000069291827 Rises=F Damp=F
 DIIS: error= 6.41D-04 at cycle   3 NSaved=   3.
 NSaved= 3 IEnMin= 3 EnMin=-0.498814908554012     IErMin= 3 ErrMin= 6.41D-04
 ErrMax= 6.41D-04  0.00D+00 EMaxC= 1.00D-01 BMatC= 4.58D-06 BMatP= 1.15D-04
 IDIUse=3 WtCom= 9.94D-01 WtEn= 6.41D-03
 Coeff-Com: -0.132D-01-0.252D+00 0.127D+01
 Coeff-En:   0.000D+00 0.000D+00 0.100D+01
 Coeff:     -0.131D-01-0.251D+00 0.126D+01
 Gap=     0.520 Goal=   None    Shift=    0.000
 RMSDP=1.31D-04 MaxDP=3.98D-03 DE=-6.93D-05 OVMax= 3.09D-03

 Cycle   4  Pass 0  IDiag  1:
 E=-0.498819313925754     Delta-E=       -0.000004405372 Rises=F Damp=F
 DIIS: error= 7.61D-06 at cycle   4 NSaved=   4.
 NSaved= 4 IEnMin= 4 EnMin=-0.498819313925754     IErMin= 4 ErrMin= 7.61D-06
 ErrMax= 7.61D-06  0.00D+00 EMaxC= 1.00D-01 BMatC= 7.32D-10 BMatP= 4.58D-06
 IDIUse=1 WtCom= 1.00D+00 WtEn= 0.00D+00
 Coeff-Com:  0.533D-02 0.103D+00-0.516D+00 0.141D+01
 Coeff:      0.533D-02 0.103D+00-0.516D+00 0.141D+01
 Gap=     0.519 Goal=   None    Shift=    0.000
 RMSDP=1.65D-06 MaxDP=6.28D-05 DE=-4.41D-06 OVMax= 1.98D-05

 Initial convergence to 1.0D-05 achieved.  Increase integral accuracy.
 Cycle   5  Pass 1  IDiag  1:
 E=-0.498819314188371     Delta-E=       -0.000000000263 Rises=F Damp=F
 DIIS: error= 1.84D-06 at cycle   1 NSaved=   1.
 NSaved= 1 IEnMin= 1 EnMin=-0.498819314188371     IErMin= 1 ErrMin= 1.84D-06
 ErrMax= 1.84D-06  0.00D+00 EMaxC= 1.00D-01 BMatC= 5.83D-11 BMatP= 5.83D-11
 IDIUse=1 WtCom= 1.00D+00 WtEn= 0.00D+00
 Coeff-Com:  0.100D+01
 Coeff:      0.100D+01
 Gap=     0.520 Goal=   None    Shift=    0.000
 RMSDP=1.65D-06 MaxDP=6.28D-05 DE=-2.63D-10 OVMax= 3.92D-06

 Cycle   6  Pass 1  IDiag  1:
 E=-0.498819314209547     Delta-E=       -0.000000000021 Rises=F Damp=F
 DIIS: error= 3.45D-07 at cycle   2 NSaved=   2.
 NSaved= 2 IEnMin= 2 EnMin=-0.498819314209547     IErMin= 2 ErrMin= 3.45D-07
 ErrMax= 3.45D-07  0.00D+00 EMaxC= 1.00D-01 BMatC= 9.80D-13 BMatP= 5.83D-11
 IDIUse=1 WtCom= 1.00D+00 WtEn= 0.00D+00
 Coeff-Com: -0.251D-01 0.103D+01
 Coeff:     -0.251D-01 0.103D+01
 Gap=     0.520 Goal=   None    Shift=    0.000
 RMSDP=4.48D-08 MaxDP=1.64D-06 DE=-2.12D-11 OVMax= 5.40D-07

 Cycle   7  Pass 1  IDiag  1:
 E=-0.498819314209864     Delta-E=       -0.000000000000 Rises=F Damp=F
 DIIS: error= 2.81D-08 at cycle   3 NSaved=   3.
 NSaved= 3 IEnMin= 3 EnMin=-0.498819314209864     IErMin= 3 ErrMin= 2.81D-08
 ErrMax= 2.81D-08  0.00D+00 EMaxC= 1.00D-01 BMatC= 8.71D-15 BMatP= 9.80D-13
 IDIUse=1 WtCom= 1.00D+00 WtEn= 0.00D+00
 Coeff-Com: -0.680D-02-0.645D-01 0.107D+01
 Coeff:     -0.680D-02-0.645D-01 0.107D+01
 Gap=     0.520 Goal=   None    Shift=    0.000
 RMSDP=6.40D-09 MaxDP=2.33D-07 DE=-3.17D-13 OVMax= 9.01D-08

 SCF Done:  E(UM062X) = -0.498819314210     A.U. after    7 cycles
            NFock=  7  Conv=0.64D-08     -V/T= 2.0003
 <Sx>= 0.0000 <Sy>= 0.0000 <Sz>= 0.5000 <S**2>= 0.7500 S= 0.5000
 <L.S>= 0.000000000000E+00
 KE= 4.986817416816D-01 PE=-9.977857349874D-01 EE= 2.846790960171D-04
 Annihilation of the first spin contaminant:
 S**2 before annihilation     0.7500,   after     0.7500
 Leave Link  502 at Sat Apr 17 07:11:01 2021, MaxMem=   104857600 cpu:            1947.0 elap:              41.4
 (Enter /s/ls4/users/knvvv/bin/g16sse/l601.exe)
 Copying SCF densities to generalized density rwf, IOpCl= 1 IROHF=0.

 **********************************************************************

            Population analysis using the SCF density.

 **********************************************************************

 Orbital symmetries:
 Alpha Orbitals:
       Occupied  (A1G)
       Virtual   (T1U) (T1U) (T1U) (A1G) (T1U) (T1U) (T1U) (A1G)
                 (T2G) (T2G) (T2G) (EG) (EG) (T1U) (T1U) (T1U)
                 (A1G) (A2U) (T2U) (T2U) (T2U) (T1U) (T1U) (T1U)
                 (T1U) (T1U) (T1U) (T2G) (T2G) (T2G) (EG) (EG)
 Beta  Orbitals:
       Virtual   (A1G) (T1U) (T1U) (T1U) (A1G) (T1U) (T1U) (T1U)
                 (A1G) (T2G) (T2G) (T2G) (EG) (EG) (T1U) (T1U)
                 (T1U) (A1G) (T2U) (T2U) (T2U) (A2U) (T1U) (T1U)
                 (T1U) (T1U) (T1U) (T1U) (T2G) (T2G) (T2G) (EG)
                 (EG)
 The electronic state is 2-A1G.
 Alpha  occ. eigenvalues --   -0.37914
 Alpha virt. eigenvalues --    0.14038   0.14038   0.14038   0.19760   0.66086
 Alpha virt. eigenvalues --    0.66086   0.66086   1.03823   1.88847   1.88847
 Alpha virt. eigenvalues --    1.88847   1.88847   1.88847   2.36925   2.36925
 Alpha virt. eigenvalues --    2.36925   4.66117   5.60396   5.60396   5.60396
 Alpha virt. eigenvalues --    5.60396   5.60396   5.60396   5.60396   7.17671
 Alpha virt. eigenvalues --    7.17671   7.17671   7.38634   7.38634   7.38634
 Alpha virt. eigenvalues --    7.38634   7.38634
  Beta virt. eigenvalues --   -0.56385  -0.13489  -0.13489  -0.13489   0.09113
  Beta virt. eigenvalues --    0.39284   0.39284   0.39284   0.76802   1.36594
  Beta virt. eigenvalues --    1.36594   1.36594   1.36594   1.36594   1.98093
  Beta virt. eigenvalues --    1.98093   1.98093   4.82138   5.36439   5.36439
  Beta virt. eigenvalues --    5.36439   5.36439   5.36439   5.36439   5.36439
  Beta virt. eigenvalues --    7.35569   7.35569   7.35569   7.50011   7.50011
  Beta virt. eigenvalues --    7.50011   7.50011   7.50011
          Condensed to atoms (all electrons):
               1
     1  H    1.000000
          Atomic-Atomic Spin Densities.
               1
     1  H    1.000000
 Mulliken charges and spin densities:
               1          2
     1  H    0.000000   1.000000
 Sum of Mulliken charges =   0.00000   1.00000
 Mulliken charges and spin densities with hydrogens summed into heavy atoms:
               1          2
 Electronic spatial extent (au):  <R**2>=              3.1640
 Charge=              0.0000 electrons
 Dipole moment (field-independent basis, Debye):
    X=             -0.0000    Y=              0.0000    Z=              0.0000  Tot=              0.0000
 Quadrupole moment (field-independent basis, Debye-Ang):
   XX=             -1.4186   YY=             -1.4186   ZZ=             -1.4186
   XY=              0.0000   XZ=             -0.0000   YZ=              0.0000
 Traceless Quadrupole moment (field-independent basis, Debye-Ang):
   XX=              0.0000   YY=              0.0000   ZZ=              0.0000
   XY=              0.0000   XZ=             -0.0000   YZ=              0.0000
 Octapole moment (field-independent basis, Debye-Ang**2):
  XXX=             -0.0000  YYY=              0.0000  ZZZ=              0.0000  XYY=             -0.0000
  XXY=              0.0000  XXZ=              0.0000  XZZ=             -0.0000  YZZ=              0.0000
  YYZ=              0.0000  XYZ=              0.0000
 Hexadecapole moment (field-independent basis, Debye-Ang**3):
 XXXX=             -1.9074 YYYY=             -1.9074 ZZZZ=             -1.9074 XXXY=              0.0000
 XXXZ=             -0.0000 YYYX=              0.0000 YYYZ=              0.0000 ZZZX=             -0.0000
 ZZZY=              0.0000 XXYY=             -0.6358 XXZZ=             -0.6358 YYZZ=             -0.6358
 XXYZ=              0.0000 YYXZ=             -0.0000 ZZXY=              0.0000
 N-N= 0.000000000000D+00 E-N=-9.977857361831D-01  KE= 4.986817416816D-01
                          Isotropic Fermi Contact Couplings
        Atom                 a.u.       MegaHertz       Gauss      10(-4) cm-1
     1  H(1)               0.33119    1480.39033     528.24008     493.80506
 --------------------------------------------------------
       Center         ----  Spin Dipole Couplings  ----
                      3XX-RR        3YY-RR        3ZZ-RR
 --------------------------------------------------------
     1   Atom        0.000000      0.000000      0.000000
 --------------------------------------------------------
                        XY            XZ            YZ
 --------------------------------------------------------
     1   Atom        0.000000      0.000000      0.000000
 --------------------------------------------------------


 ---------------------------------------------------------------------------------
              Anisotropic Spin Dipole Couplings in Principal Axis System
 ---------------------------------------------------------------------------------

       Atom             a.u.   MegaHertz   Gauss  10(-4) cm-1        Axes

              Baa     0.0000     0.000     0.000     0.000  1.0000  0.0000  0.0000
     1 H(1)   Bbb     0.0000     0.000     0.000     0.000 -0.0000  1.0000  0.0000
              Bcc     0.0000     0.000     0.000     0.000  0.0000  0.0000  1.0000
 

 ---------------------------------------------------------------------------------

 No NMR shielding tensors so no spin-rotation constants.
 Leave Link  601 at Sat Apr 17 07:11:04 2021, MaxMem=   104857600 cpu:             139.0 elap:               3.0
 (Enter /s/ls4/users/knvvv/bin/g16sse/l801.exe)
 DoSCS=F DFT=T ScalE2(SS,OS)=  1.000000  1.000000
 Range of M.O.s used for correlation:     1    33
 NBasis=    33 NAE=     1 NBE=     0 NFC=     0 NFV=     0
 NROrb=     33 NOA=     1 NOB=     0 NVA=    32 NVB=    33
 *** There is no correlation energy for this system ***
 Leave Link  801 at Sat Apr 17 07:11:04 2021, MaxMem=   104857600 cpu:               5.0 elap:               0.1
 (Enter /s/ls4/users/knvvv/bin/g16sse/l914.exe)
 UHF ground state
 Doing stability rather than CIS.
 Keep R1 and R2 ints in memory in symmetry-blocked form, NReq=52880841.
 FoFCou: FMM=F IPFlag=           0 FMFlag=           0 FMFlg1=           0
         NFxFlg=           0 DoJE=F BraDBF=F KetDBF=F FulRan=T
         wScrn=  0.000000 ICntrl=       600 IOpCl=  0 I1Cent=           0 NGrid=           0
         NMat0=    1 NMatS0=    561 NMatT0=    0 NMatD0=    1 NMtDS0=    0 NMtDT0=    0
 Petite list used in FoFCou.
 MDV=   104857600 DFT=T DoStab=T Mixed=T DoRPA=F DoScal=F NonHer=F
 Making orbital integer symmetry assigments:
 Orbital symmetries:
 Alpha Orbitals:
       Occupied  (A1G)
       Virtual   (T1U) (T1U) (T1U) (A1G) (T1U) (T1U) (T1U) (A1G)
                 (T2G) (T2G) (T2G) (EG) (EG) (T1U) (T1U) (T1U)
                 (A1G) (A2U) (T2U) (T2U) (T2U) (T1U) (T1U) (T1U)
                 (T1U) (T1U) (T1U) (T2G) (T2G) (T2G) (EG) (EG)
 Beta  Orbitals:
       Virtual   (A1G) (T1U) (T1U) (T1U) (A1G) (T1U) (T1U) (T1U)
                 (A1G) (T2G) (T2G) (T2G) (EG) (EG) (T1U) (T1U)
                 (T1U) (A1G) (T2U) (T2U) (T2U) (A2U) (T1U) (T1U)
                 (T1U) (T1U) (T1U) (T1U) (T2G) (T2G) (T2G) (EG)
                 (EG)
    24 initial guesses have been made.
 Convergence on wavefunction:    0.001000000000000
 Davidson Disk Diagonalization:  ConvIn= 1.00D-03 SkipCon=T Conv= 1.00D-03.
 Max sub-space:    64 roots to seek:    24 dimension of matrix:           32
 Iteration     1 Dimension    24 NMult     0 NNew     24
 CISAX will form    24 AO SS matrices at one time.
 NMat=    24 NSing=    24 JSym2X= 2.
 Excitation Energies [eV] at current iteration:
 Root      1 :    10.186071558206700
 Root      2 :    10.186071558208650
 Root      3 :    10.186071558209570
 Root      4 :    12.387126225885290
 Root      5 :    23.734442662503700
 Root      6 :    23.734442662505010
 Root      7 :    23.734442662506080
 Root      8 :    34.520505527977260
 Root      9 :    58.394998715155690
 Root     10 :    58.394998715155910
 Root     11 :    58.394998715458520
 Root     12 :    58.394998715458680
 Root     13 :    58.394998715458780
 Root     14 :    63.496100526142360
 Root     15 :    63.496100526142950
 Root     16 :    63.496100526144850
 Root     17 :   138.057568497047000
 Root     18 :   150.823477954622800
 Root     19 :   150.823477955193900
 Root     20 :   150.823477955194500
 Root     21 :   150.823477955194600
 Root     22 :   150.823477955716600
 Root     23 :   150.823477955717000
 Root     24 :   150.823477955717700
 Iteration     2 Dimension    32 NMult    24 NNew      8
 CISAX will form     8 AO SS matrices at one time.
 NMat=     8 NSing=     8 JSym2X= 2.
 Root      1 not converged, maximum delta is    0.012202199317834
 Excitation Energies [eV] at current iteration:
 Root      1 :    10.151585485187400   Change is   -0.034486073019294
 Root      2 :    10.151585485189340   Change is   -0.034486073019312
 Root      3 :    10.151585485190280   Change is   -0.034486073019295
 Root      4 :    12.387126225885270   Change is   -0.000000000000024
 Root      5 :    23.541034166296430   Change is   -0.193408496207266
 Root      6 :    23.541034166297680   Change is   -0.193408496207336
 Root      7 :    23.541034166298730   Change is   -0.193408496207342
 Root      8 :    34.520505527977260   Change is   -0.000000000000012
 Root      9 :    57.888758100799050   Change is   -0.506240614356635
 Root     10 :    57.888758100799100   Change is   -0.506240614356816
 Root     11 :    57.888758100942190   Change is   -0.506240614516328
 Root     12 :    57.888758100942250   Change is   -0.506240614516425
 Root     13 :    57.888758100942410   Change is   -0.506240614516365
 Root     14 :    63.315481673404180   Change is   -0.180618852738184
 Root     15 :    63.315481673404770   Change is   -0.180618852738184
 Root     16 :    63.315481673406630   Change is   -0.180618852738220
 Root     17 :   138.057568497046900   Change is   -0.000000000000169
 Root     18 :   150.823477954622800   Change is    0.000000000000024
 Root     19 :   150.823477955193900   Change is   -0.000000000000048
 Root     20 :   150.823477955194400   Change is   -0.000000000000121
 Root     21 :   150.823477955194500   Change is   -0.000000000000121
 Root     22 :   150.823477955716700   Change is    0.000000000000097
 Root     23 :   150.823477955717200   Change is    0.000000000000145
 Root     24 :   150.823477955717700   Change is    0.000000000000024
 Convergence achieved on expansion vectors.
 ***********************************************************************
 Stability analysis using <AA,BB:AA,BB> singles matrix:
 ***********************************************************************
 1PDM for each excited state written to RWF  633
 Ground to excited state transition densities written to RWF  633

 Eigenvectors of the stability matrix:
 
 Eigenvector   1:  2.000-T1U  Eigenvalue= 0.3730639  <S**2>=0.750
      1A ->  2A        0.79215
      1A ->  3A        0.35581
      1A ->  4A       -0.49340
 
 Eigenvector   2:  2.000-T1U  Eigenvalue= 0.3730639  <S**2>=0.750
      1A ->  3A        0.79811
      1A ->  4A        0.60026
 
 Eigenvector   3:  2.000-T1U  Eigenvalue= 0.3730639  <S**2>=0.750
      1A ->  2A        0.60812
      1A ->  3A       -0.48369
      1A ->  4A        0.62752
 The wavefunction is stable under the perturbations considered.
 Leave Link  914 at Sat Apr 17 07:11:08 2021, MaxMem=   104857600 cpu:             192.6 elap:               4.1
 (Enter /s/ls4/users/knvvv/bin/g16sse/l508.exe)
 The wavefunction is already stable.
 Leave Link  508 at Sat Apr 17 07:11:08 2021, MaxMem=   104857600 cpu:               2.2 elap:               0.1
 (Enter /s/ls4/users/knvvv/bin/g16sse/l601.exe)
 Copying SCF densities to generalized density rwf, IOpCl= 1 IROHF=0.

 **********************************************************************

            Population analysis using the SCF density.

 **********************************************************************

 Orbital symmetries:
 Alpha Orbitals:
       Occupied  (A1G)
       Virtual   (T1U) (T1U) (T1U) (A1G) (T1U) (T1U) (T1U) (A1G)
                 (T2G) (T2G) (T2G) (EG) (EG) (T1U) (T1U) (T1U)
                 (A1G) (A2U) (T2U) (T2U) (T2U) (T1U) (T1U) (T1U)
                 (T1U) (T1U) (T1U) (T2G) (T2G) (T2G) (EG) (EG)
 Beta  Orbitals:
       Virtual   (A1G) (T1U) (T1U) (T1U) (A1G) (T1U) (T1U) (T1U)
                 (A1G) (T2G) (T2G) (T2G) (EG) (EG) (T1U) (T1U)
                 (T1U) (A1G) (T2U) (T2U) (T2U) (A2U) (T1U) (T1U)
                 (T1U) (T1U) (T1U) (T1U) (T2G) (T2G) (T2G) (EG)
                 (EG)
 The electronic state is 2-A1G.
 Alpha  occ. eigenvalues --   -0.37914
 Alpha virt. eigenvalues --    0.14038   0.14038   0.14038   0.19760   0.66086
 Alpha virt. eigenvalues --    0.66086   0.66086   1.03823   1.88847   1.88847
 Alpha virt. eigenvalues --    1.88847   1.88847   1.88847   2.36925   2.36925
 Alpha virt. eigenvalues --    2.36925   4.66117   5.60396   5.60396   5.60396
 Alpha virt. eigenvalues --    5.60396   5.60396   5.60396   5.60396   7.17671
 Alpha virt. eigenvalues --    7.17671   7.17671   7.38634   7.38634   7.38634
 Alpha virt. eigenvalues --    7.38634   7.38634
  Beta virt. eigenvalues --   -0.56385  -0.13489  -0.13489  -0.13489   0.09113
  Beta virt. eigenvalues --    0.39284   0.39284   0.39284   0.76802   1.36594
  Beta virt. eigenvalues --    1.36594   1.36594   1.36594   1.36594   1.98093
  Beta virt. eigenvalues --    1.98093   1.98093   4.82138   5.36439   5.36439
  Beta virt. eigenvalues --    5.36439   5.36439   5.36439   5.36439   5.36439
  Beta virt. eigenvalues --    7.35569   7.35569   7.35569   7.50011   7.50011
  Beta virt. eigenvalues --    7.50011   7.50011   7.50011
          Condensed to atoms (all electrons):
               1
     1  H    1.000000
          Atomic-Atomic Spin Densities.
               1
     1  H    1.000000
 Mulliken charges and spin densities:
               1          2
     1  H    0.000000   1.000000
 Sum of Mulliken charges =   0.00000   1.00000
 Mulliken charges and spin densities with hydrogens summed into heavy atoms:
               1          2
 Electronic spatial extent (au):  <R**2>=              3.1640
 Charge=              0.0000 electrons
 Dipole moment (field-independent basis, Debye):
    X=             -0.0000    Y=              0.0000    Z=              0.0000  Tot=              0.0000
 Quadrupole moment (field-independent basis, Debye-Ang):
   XX=             -1.4186   YY=             -1.4186   ZZ=             -1.4186
   XY=              0.0000   XZ=             -0.0000   YZ=              0.0000
 Traceless Quadrupole moment (field-independent basis, Debye-Ang):
   XX=              0.0000   YY=              0.0000   ZZ=              0.0000
   XY=              0.0000   XZ=             -0.0000   YZ=              0.0000
 Octapole moment (field-independent basis, Debye-Ang**2):
  XXX=             -0.0000  YYY=              0.0000  ZZZ=              0.0000  XYY=             -0.0000
  XXY=              0.0000  XXZ=              0.0000  XZZ=             -0.0000  YZZ=              0.0000
  YYZ=              0.0000  XYZ=              0.0000
 Hexadecapole moment (field-independent basis, Debye-Ang**3):
 XXXX=             -1.9074 YYYY=             -1.9074 ZZZZ=             -1.9074 XXXY=              0.0000
 XXXZ=             -0.0000 YYYX=              0.0000 YYYZ=              0.0000 ZZZX=             -0.0000
 ZZZY=              0.0000 XXYY=             -0.6358 XXZZ=             -0.6358 YYZZ=             -0.6358
 XXYZ=              0.0000 YYXZ=             -0.0000 ZZXY=              0.0000
 N-N= 0.000000000000D+00 E-N=-9.977857361831D-01  KE= 4.986817416816D-01
                          Isotropic Fermi Contact Couplings
        Atom                 a.u.       MegaHertz       Gauss      10(-4) cm-1
     1  H(1)               0.33119    1480.39033     528.24008     493.80506
 --------------------------------------------------------
       Center         ----  Spin Dipole Couplings  ----
                      3XX-RR        3YY-RR        3ZZ-RR
 --------------------------------------------------------
     1   Atom        0.000000      0.000000      0.000000
 --------------------------------------------------------
                        XY            XZ            YZ
 --------------------------------------------------------
     1   Atom        0.000000      0.000000      0.000000
 --------------------------------------------------------


 ---------------------------------------------------------------------------------
              Anisotropic Spin Dipole Couplings in Principal Axis System
 ---------------------------------------------------------------------------------

       Atom             a.u.   MegaHertz   Gauss  10(-4) cm-1        Axes

              Baa     0.0000     0.000     0.000     0.000  1.0000  0.0000  0.0000
     1 H(1)   Bbb     0.0000     0.000     0.000     0.000 -0.0000  1.0000  0.0000
              Bcc     0.0000     0.000     0.000     0.000  0.0000  0.0000  1.0000
 

 ---------------------------------------------------------------------------------

 No NMR shielding tensors so no spin-rotation constants.
 Leave Link  601 at Sat Apr 17 07:11:11 2021, MaxMem=   104857600 cpu:             130.3 elap:               2.8
 (Enter /s/ls4/users/knvvv/bin/g16sse/l9999.exe)

 Test job not archived.
 1\1\GINC-N152\Stability\UM062X\Gen\H1(2)\KNVVV\17-Apr-2021\0\\#P M062X
 /GEN Integral=UltraFineGrid SCF=NoSymm Stable=(RExt, Opt) IOp(1/33=1)\
 \Database calculations.\\0,2\H,0,0.,0.,0.\\Version=ES64L-G16RevA.03\St
 ate=2-A1G\HF=-0.4988193\S2=0.75\S2-1=0.\S2A=0.75\RMSD=6.400e-09\Dipole
 =0.,0.,0.\Quadrupole=0.,0.,0.,0.,0.,0.\PG=OH [O(H1)]\\@


 The lyf so short, the craft so long to lerne.
                             -- Chaucer
 Job cpu time:       0 days  0 hours 46 minutes 38.9 seconds.
 Elapsed time:       0 days  0 hours  0 minutes 59.9 seconds.
 File lengths (MBytes):  RWF=      6 Int=      0 D2E=      0 Chk=      1 Scr=      1
 Normal termination of Gaussian 16 at Sat Apr 17 07:11:11 2021.
