 Entering Gaussian System, Link 0=/s/ls4/users/knvvv/bin/g16sse/g16
 Input=data/database/M062X--def2-QZVPPD--143_ch2-trip_W4-11.gjf
 Output=data/database/M062X--def2-QZVPPD--143_ch2-trip_W4-11.log
 Initial command:
 /s/ls4/users/knvvv/bin/g16sse/l1.exe "/s/ls4/users/knvvv/bin/scratch/Gau-43793.inp" -scrdir="/s/ls4/users/knvvv/bin/scratch/"
 Entering Link 1 = /s/ls4/users/knvvv/bin/g16sse/l1.exe PID=     43794.
  
 Copyright (c) 1988,1990,1992,1993,1995,1998,2003,2009,2016,
            Gaussian, Inc.  All Rights Reserved.
  
 This is part of the Gaussian(R) 16 program.  It is based on
 the Gaussian(R) 09 system (copyright 2009, Gaussian, Inc.),
 the Gaussian(R) 03 system (copyright 2003, Gaussian, Inc.),
 the Gaussian(R) 98 system (copyright 1998, Gaussian, Inc.),
 the Gaussian(R) 94 system (copyright 1995, Gaussian, Inc.),
 the Gaussian 92(TM) system (copyright 1992, Gaussian, Inc.),
 the Gaussian 90(TM) system (copyright 1990, Gaussian, Inc.),
 the Gaussian 88(TM) system (copyright 1988, Gaussian, Inc.),
 the Gaussian 86(TM) system (copyright 1986, Carnegie Mellon
 University), and the Gaussian 82(TM) system (copyright 1983,
 Carnegie Mellon University). Gaussian is a federally registered
 trademark of Gaussian, Inc.
  
 This software contains proprietary and confidential information,
 including trade secrets, belonging to Gaussian, Inc.
  
 This software is provided under written license and may be
 used, copied, transmitted, or stored only in accord with that
 written license.
  
 The following legend is applicable only to US Government
 contracts under FAR:
  
                    RESTRICTED RIGHTS LEGEND
  
 Use, reproduction and disclosure by the US Government is
 subject to restrictions as set forth in subparagraphs (a)
 and (c) of the Commercial Computer Software - Restricted
 Rights clause in FAR 52.227-19.
  
 Gaussian, Inc.
 340 Quinnipiac St., Bldg. 40, Wallingford CT 06492
  
  
 ---------------------------------------------------------------
 Warning -- This program may not be used in any manner that
 competes with the business of Gaussian, Inc. or will provide
 assistance to any competitor of Gaussian, Inc.  The licensee
 of this program is prohibited from giving any competitor of
 Gaussian, Inc. access to this program.  By using this program,
 the user acknowledges that Gaussian, Inc. is engaged in the
 business of creating and licensing software in the field of
 computational chemistry and represents and warrants to the
 licensee that it is not a competitor of Gaussian, Inc. and that
 it will not use this program in any manner prohibited above.
 ---------------------------------------------------------------
  

 Cite this work as:
 Gaussian 16, Revision A.03,
 M. J. Frisch, G. W. Trucks, H. B. Schlegel, G. E. Scuseria, 
 M. A. Robb, J. R. Cheeseman, G. Scalmani, V. Barone, 
 G. A. Petersson, H. Nakatsuji, X. Li, M. Caricato, A. V. Marenich, 
 J. Bloino, B. G. Janesko, R. Gomperts, B. Mennucci, H. P. Hratchian, 
 J. V. Ortiz, A. F. Izmaylov, J. L. Sonnenberg, D. Williams-Young, 
 F. Ding, F. Lipparini, F. Egidi, J. Goings, B. Peng, A. Petrone, 
 T. Henderson, D. Ranasinghe, V. G. Zakrzewski, J. Gao, N. Rega, 
 G. Zheng, W. Liang, M. Hada, M. Ehara, K. Toyota, R. Fukuda, 
 J. Hasegawa, M. Ishida, T. Nakajima, Y. Honda, O. Kitao, H. Nakai, 
 T. Vreven, K. Throssell, J. A. Montgomery, Jr., J. E. Peralta, 
 F. Ogliaro, M. J. Bearpark, J. J. Heyd, E. N. Brothers, K. N. Kudin, 
 V. N. Staroverov, T. A. Keith, R. Kobayashi, J. Normand, 
 K. Raghavachari, A. P. Rendell, J. C. Burant, S. S. Iyengar, 
 J. Tomasi, M. Cossi, J. M. Millam, M. Klene, C. Adamo, R. Cammi, 
 J. W. Ochterski, R. L. Martin, K. Morokuma, O. Farkas, 
 J. B. Foresman, and D. J. Fox, Gaussian, Inc., Wallingford CT, 2016.
 
 ******************************************
 Gaussian 16:  ES64L-G16RevA.03 25-Dec-2016
                17-Apr-2021 
 ******************************************
 %RWF=temp10_84536,70GB
 %nprocshared=48
 Will use up to   48 processors via shared memory.
 Default route: MaxDisk=80GB
 ----------------------------------------------------------------------
 #P M062X/GEN Integral=UltraFineGrid SCF=NoSymm Stable=(RExt, Opt) IOp(
 1/33=1)
 ----------------------------------------------------------------------
 1/33=1,38=1,172=1/1;
 2/12=2,17=6,18=5,40=1/2;
 3/5=7,11=2,25=1,30=1,74=-55,75=-5/1,2,3;
 4/9=2/1;
 5/5=2,38=5/2;
 6/7=2,8=2,9=2,10=2,28=1/1;
 8/6=1,10=90,11=11/1;
 9/8=-3,42=1,46=1/14;
 5/5=2,8=3,17=40,38=5/8(-2);
 6/7=2,8=2,9=2,10=2,28=1/1;
 99/5=1,9=1/99;
 Leave Link    1 at Sat Apr 17 10:41:47 2021, MaxMem=           0 cpu:              11.0 elap:               0.3
 (Enter /s/ls4/users/knvvv/bin/g16sse/l101.exe)
 ONIOM data not found on unit 2.
 ----------------------
 Database calculations.
 ----------------------
 TstMul:  ICh=     0
 TstMul:  Mul=     3
 TstMul:  ICh=     0
 TstMul:  Mul=     3
 Symbolic Z-matrix:
 Charge =  0 Multiplicity = 3
 C                     0.        0.        0. 
 H                     0.        0.        1.07726 
 H                     0.77962   0.       -0.74343 
 
 RdStrC is calling ZToCFu for IStruc=1 NZ=     3.
 PrtBox:  NBox=     1 Levels=  1 BoxLen=    8.00 SMaxX=        3.44
          Shift=            0.000000            0.000000            1.404874
 Box      1 Number                   0 centers from      1 to      3:
 After GenITR:
 ITRead=  0  0  0
 MicOpt= -1 -1 -1
 ITRead=  0  0  0
 MicOpt= -1 -1 -1
 NAtoms=      3 NQM=        3 NQMF=       0 NMMI=      0 NMMIF=      0
                NMic=       0 NMicF=      0.
                    Isotopes and Nuclear Properties:
 (Nuclear quadrupole moments (NQMom) in fm**2, nuclear magnetic moments (NMagM)
  in nuclear magnetons)

  Atom         1           2           3
 IAtWgt=          12           1           1
 AtmWgt=  12.0000000   1.0078250   1.0078250
 NucSpn=           0           1           1
 AtZEff=  -0.0000000  -0.0000000  -0.0000000
 NQMom=    0.0000000   0.0000000   0.0000000
 NMagM=    0.0000000   2.7928460   2.7928460
 AtZNuc=   6.0000000   1.0000000   1.0000000
 No MM parameters found.
 Leave Link  101 at Sat Apr 17 10:41:47 2021, MaxMem=   104857600 cpu:               8.8 elap:               0.2
 (Enter /s/ls4/users/knvvv/bin/g16sse/l202.exe)
                          Input orientation:                          
 ---------------------------------------------------------------------
 Center     Atomic      Atomic             Coordinates (Angstroms)
 Number     Number       Type             X           Y           Z
 ---------------------------------------------------------------------
      1          6           0        0.000000    0.000000    0.000000
      2          1           0        0.000000    0.000000    1.077260
      3          1           0        0.779619    0.000000   -0.743427
 ---------------------------------------------------------------------
                    Distance matrix (angstroms):
                    1          2          3
     1  C    0.000000
     2  H    1.077260   0.000000
     3  H    1.077260   1.980583   0.000000
 Stoichiometry    CH2(3)
 Framework group  C2V[C2(C),SGV(H2)]
 Deg. of freedom     2
 Full point group                 C2V     NOp   4
 Largest Abelian subgroup         C2V     NOp   4
 Largest concise Abelian subgroup C2      NOp   2
                         Standard orientation:                         
 ---------------------------------------------------------------------
 Center     Atomic      Atomic             Coordinates (Angstroms)
 Number     Number       Type             X           Y           Z
 ---------------------------------------------------------------------
      1          6           0       -0.000000    0.000000    0.106011
      2          1           0        0.000000    0.990291   -0.318032
      3          1           0       -0.000000   -0.990291   -0.318032
 ---------------------------------------------------------------------
 Rotational constants (GHZ):        1628.5972366         255.6677575         220.9773066
 Leave Link  202 at Sat Apr 17 10:41:47 2021, MaxMem=   104857600 cpu:              12.9 elap:               0.3
 (Enter /s/ls4/users/knvvv/bin/g16sse/l301.exe)
 General basis read from cards:  (5D, 7F)
 Centers:       2      3
 S 4 1.00
     Exponent=  1.9069169000D+02 Coefficients=  7.0815167000D-04
     Exponent=  2.8605532000D+01 Coefficients=  5.4678827000D-03
     Exponent=  6.5095943000D+00 Coefficients=  2.7966605000D-02
     Exponent=  1.8412455000D+00 Coefficients=  1.0764538000D-01
 S 1 1.00
     Exponent=  5.9853725000D-01 Coefficients=  1.0000000000D+00
 S 1 1.00
     Exponent=  2.1397624000D-01 Coefficients=  1.0000000000D+00
 S 1 1.00
     Exponent=  8.0316286000D-02 Coefficients=  1.0000000000D+00
 P 1 1.00
     Exponent=  2.2920000000D+00 Coefficients=  1.0000000000D+00
 P 1 1.00
     Exponent=  8.3800000000D-01 Coefficients=  1.0000000000D+00
 P 1 1.00
     Exponent=  2.9200000000D-01 Coefficients=  1.0000000000D+00
 P 1 1.00
     Exponent=  8.4063199228D-02 Coefficients=  1.0000000000D+00
 D 1 1.00
     Exponent=  2.0620000000D+00 Coefficients=  1.0000000000D+00
 D 1 1.00
     Exponent=  6.6200000000D-01 Coefficients=  1.0000000000D+00
 F 1 1.00
     Exponent=  1.3970000000D+00 Coefficients=  1.0000000000D+00
 ****
 Centers:       1
 S 8 1.00
     Exponent=  6.7025071029D+04 Coefficients=  3.8736308501D-05
     Exponent=  1.0039986538D+04 Coefficients=  3.0107917575D-04
     Exponent=  2.2849316911D+03 Coefficients=  1.5787918095D-03
     Exponent=  6.4714122130D+02 Coefficients=  6.6087087195D-03
     Exponent=  2.1109472335D+02 Coefficients=  2.3367123250D-02
     Exponent=  7.6177643862D+01 Coefficients=  7.0420716898D-02
     Exponent=  2.9633839163D+01 Coefficients=  1.7360344953D-01
     Exponent=  1.2187785081D+01 Coefficients=  3.2292305648D-01
 S 2 1.00
     Exponent=  5.3026006299D+01 Coefficients=  7.4897404492D-02
     Exponent=  1.5258502776D+01 Coefficients=  7.6136220983D-01
 S 1 1.00
     Exponent=  5.2403957464D+00 Coefficients=  1.0000000000D+00
 S 1 1.00
     Exponent=  2.2905022379D+00 Coefficients=  1.0000000000D+00
 S 1 1.00
     Exponent=  6.9673283006D-01 Coefficients=  1.0000000000D+00
 S 1 1.00
     Exponent=  2.7599337363D-01 Coefficients=  1.0000000000D+00
 S 1 1.00
     Exponent=  1.0739884389D-01 Coefficients=  1.0000000000D+00
 S 1 1.00
     Exponent=  4.4981404899D-02 Coefficients=  1.0000000000D+00
 P 5 1.00
     Exponent=  1.0512555082D+02 Coefficients=  8.4647553844D-04
     Exponent=  2.4884461066D+01 Coefficients=  6.6274038534D-03
     Exponent=  7.8637230826D+00 Coefficients=  3.0120390419D-02
     Exponent=  2.8407001835D+00 Coefficients=  9.9951435476D-02
     Exponent=  1.1227137335D+00 Coefficients=  2.3826299282D-01
 P 1 1.00
     Exponent=  4.6050725555D-01 Coefficients=  1.0000000000D+00
 P 1 1.00
     Exponent=  1.8937530913D-01 Coefficients=  1.0000000000D+00
 P 1 1.00
     Exponent=  7.5983791611D-02 Coefficients=  1.0000000000D+00
 D 1 1.00
     Exponent=  1.8480000000D+00 Coefficients=  1.0000000000D+00
 D 1 1.00
     Exponent=  6.4900000000D-01 Coefficients=  1.0000000000D+00
 D 1 1.00
     Exponent=  2.2800000000D-01 Coefficients=  1.0000000000D+00
 D 1 1.00
     Exponent=  7.6889830417D-02 Coefficients=  1.0000000000D+00
 F 1 1.00
     Exponent=  1.4190000000D+00 Coefficients=  1.0000000000D+00
 F 1 1.00
     Exponent=  4.8500000000D-01 Coefficients=  1.0000000000D+00
 G 1 1.00
     Exponent=  1.0110000000D+00 Coefficients=  1.0000000000D+00
 ****
 Ernie: Thresh=  0.10000D-02 Tol=  0.10000D-05 Strict=F.
 There are    62 symmetry adapted cartesian basis functions of A1  symmetry.
 There are    21 symmetry adapted cartesian basis functions of A2  symmetry.
 There are    29 symmetry adapted cartesian basis functions of B1  symmetry.
 There are    43 symmetry adapted cartesian basis functions of B2  symmetry.
 There are    49 symmetry adapted basis functions of A1  symmetry.
 There are    19 symmetry adapted basis functions of A2  symmetry.
 There are    25 symmetry adapted basis functions of B1  symmetry.
 There are    36 symmetry adapted basis functions of B2  symmetry.
   129 basis functions,   181 primitive gaussians,   155 cartesian basis functions
     5 alpha electrons        3 beta electrons
       nuclear repulsion energy         6.1618822794 Hartrees.
 IExCor= 4336 DFT=T Ex+Corr=M062X ExCW=0 ScaHFX=  0.540000
 ScaDFX=  1.000000  1.000000  1.000000  1.000000 ScalE2=  1.000000  1.000000
 IRadAn=      5 IRanWt=     -1 IRanGd=            0 ICorTp=0 IEmpDi=  4
 NAtoms=    3 NActive=    3 NUniq=    2 SFac= 2.25D+00 NAtFMM=   60 NAOKFM=F Big=F
 Integral buffers will be    131072 words long.
 Raffenetti 2 integral format.
 Two-electron integral symmetry is turned on.
 Leave Link  301 at Sat Apr 17 10:41:47 2021, MaxMem=   104857600 cpu:               7.3 elap:               0.2
 (Enter /s/ls4/users/knvvv/bin/g16sse/l302.exe)
 NPDir=0 NMtPBC=     1 NCelOv=     1 NCel=       1 NClECP=     1 NCelD=      1
         NCelK=      1 NCelE2=     1 NClLst=     1 CellRange=     0.0.
 One-electron integrals computed using PRISM.
 One-electron integral symmetry used in STVInt
 PrsmSu:  requested number of processors reduced to:   4 ShMem   1 Linda.
 PrsmSu:  requested number of processors reduced to:  21 ShMem   1 Linda.
 NBasis=   129 RedAO= T EigKep=  1.21D-05  NBF=    49    19    25    36
 NBsUse=   129 1.00D-06 EigRej= -1.00D+00 NBFU=    49    19    25    36
 Precomputing XC quadrature grid using
 IXCGrd= 4 IRadAn=           5 IRanWt=          -1 IRanGd=           0 AccXCQ= 0.00D+00.
 Generated NRdTot=       0 NPtTot=           0 NUsed=           0 NTot=          32
 NSgBfM=   155   155   155   155   155 MxSgAt=     3 MxSgA2=     3.
 Leave Link  302 at Sat Apr 17 10:41:52 2021, MaxMem=   104857600 cpu:             214.2 elap:               4.7
 (Enter /s/ls4/users/knvvv/bin/g16sse/l303.exe)
 DipDrv:  MaxL=1.
 Leave Link  303 at Sat Apr 17 10:41:53 2021, MaxMem=   104857600 cpu:              35.5 elap:               0.8
 (Enter /s/ls4/users/knvvv/bin/g16sse/l401.exe)
 SCF N**3 symmetry information disabled.
 ExpMin= 4.50D-02 ExpMax= 6.70D+04 ExpMxC= 6.47D+02 IAcc=3 IRadAn=         5 AccDes= 0.00D+00
 Harris functional with IExCor= 1009 and IRadAn=       5 diagonalized for initial guess.
 HarFok:  IExCor= 1009 AccDes= 0.00D+00 IRadAn=         5 IDoV= 1 UseB2=F ITyADJ=14
 ICtDFT=  3500011 ScaDFX=  1.000000  1.000000  1.000000  1.000000
 FoFCou: FMM=F IPFlag=           0 FMFlag=      100000 FMFlg1=           0
         NFxFlg=           0 DoJE=T BraDBF=F KetDBF=T FulRan=T
         wScrn=  0.000000 ICntrl=       500 IOpCl=  0 I1Cent=   200000004 NGrid=           0
         NMat0=    1 NMatS0=      1 NMatT0=    0 NMatD0=    1 NMtDS0=    0 NMtDT0=    0
 Petite list used in FoFCou.
 CoulSu:  requested number of processors reduced to:  21 ShMem   1 Linda.
 CoulSu:  requested number of processors reduced to:  21 ShMem   1 Linda.
 CoulSu:  requested number of processors reduced to:  21 ShMem   1 Linda.
 CoulSu:  requested number of processors reduced to:  21 ShMem   1 Linda.
 Harris En= -39.0651349047881    
 JPrj=0 DoOrth=F DoCkMO=F.
 Initial guess orbital symmetries:
 Alpha Orbitals:
       Occupied  (A1) (A1) (B2) (A1) (B1)
       Virtual   (A1) (B2) (A1) (A1) (B2) (B1) (A2) (A1) (B1) (A1)
                 (B2) (A1) (B2) (B1) (A1) (A2) (B2) (A1) (B2) (A2)
                 (A1) (B1) (A1) (B2) (A1) (B1) (B2) (A1) (B2) (B1)
                 (A1) (A2) (A1) (B2) (A1) (B2) (B1) (A1) (A2) (A1)
                 (A2) (B2) (B1) (A1) (B1) (A1) (B2) (B2) (A2) (B1)
                 (A1) (B2) (A1) (A1) (A2) (B1) (B2) (B1) (A1) (B2)
                 (A1) (B2) (A2) (A1) (B1) (B2) (A1) (B2) (A1) (B1)
                 (A2) (B2) (A1) (A2) (B2) (B1) (B1) (A2) (B2) (A1)
                 (A1) (B1) (A1) (A1) (B2) (A2) (B2) (B1) (A1) (B1)
                 (A1) (B2) (A1) (A2) (B1) (A1) (B2) (A2) (B1) (A1)
                 (B2) (A2) (B2) (A1) (B2) (A2) (A1) (B1) (B2) (A1)
                 (B2) (B1) (A1) (A2) (B2) (A1) (A2) (B1) (B2) (A1)
                 (B2) (A1) (A1) (A1)
 Beta  Orbitals:
       Occupied  (A1) (A1) (B2)
       Virtual   (A1) (B1) (A1) (B2) (A1) (A1) (B2) (B1) (A2) (A1)
                 (B1) (A1) (B2) (A1) (B2) (B1) (A1) (A2) (B2) (A1)
                 (B2) (A2) (A1) (B1) (A1) (B2) (A1) (B1) (B2) (A1)
                 (B2) (B1) (A1) (A2) (A1) (B2) (A1) (B2) (B1) (A1)
                 (A2) (A1) (A2) (B2) (B1) (A1) (B1) (A1) (B2) (B2)
                 (A2) (B1) (A1) (B2) (A1) (A1) (A2) (B1) (B2) (B1)
                 (A1) (B2) (A1) (B2) (A2) (A1) (B1) (B2) (A1) (B2)
                 (A1) (B1) (A2) (B2) (A1) (A2) (B2) (B1) (B1) (A2)
                 (B2) (A1) (A1) (B1) (A1) (A1) (B2) (A2) (B2) (B1)
                 (A1) (B1) (A1) (B2) (A1) (A2) (B1) (A1) (B2) (A2)
                 (B1) (A1) (B2) (A2) (B2) (A1) (B2) (A2) (A1) (B1)
                 (B2) (A1) (B2) (B1) (A1) (A2) (B2) (A1) (A2) (B1)
                 (B2) (A1) (B2) (A1) (A1) (A1)
 The electronic state of the initial guess is 3-B1.
 Initial guess <Sx>= 0.0000 <Sy>= 0.0000 <Sz>= 1.0000 <S**2>= 2.0000 S= 1.0000
 Leave Link  401 at Sat Apr 17 10:41:55 2021, MaxMem=   104857600 cpu:             111.2 elap:               2.6
 (Enter /s/ls4/users/knvvv/bin/g16sse/l502.exe)
 Keep R1 and R2 ints in memory in symmetry-blocked form, NReq=89431050.
 FoFCou: FMM=F IPFlag=           0 FMFlag=           0 FMFlg1=           0
         NFxFlg=           0 DoJE=F BraDBF=F KetDBF=F FulRan=T
         wScrn=  0.000000 ICntrl=       600 IOpCl=  0 I1Cent=           0 NGrid=           0
         NMat0=    1 NMatS0=   8385 NMatT0=    0 NMatD0=    1 NMtDS0=    0 NMtDT0=    0
 Petite list used in FoFCou.
 CoulSu:  requested number of processors reduced to:  15 ShMem   1 Linda.
 UHF open shell SCF:
 Using DIIS extrapolation, IDIIS=  1040.
 NGot=   104857600 LenX=    86972369 LenY=    86947903
 Requested convergence on RMS density matrix=1.00D-08 within 128 cycles.
 Requested convergence on MAX density matrix=1.00D-06.
 Requested convergence on             energy=1.00D-06.
 No special actions if energy rises.

 Cycle   1  Pass 1  IDiag  1:
 E= -39.1296623531790    
 DIIS: error= 2.72D-02 at cycle   1 NSaved=   1.
 NSaved= 1 IEnMin= 1 EnMin= -39.1296623531790     IErMin= 1 ErrMin= 2.72D-02
 ErrMax= 2.72D-02  0.00D+00 EMaxC= 1.00D-01 BMatC= 1.35D-01 BMatP= 1.35D-01
 IDIUse=3 WtCom= 7.28D-01 WtEn= 2.72D-01
 Coeff-Com:  0.100D+01
 Coeff-En:   0.100D+01
 Coeff:      0.100D+01
 Gap=     0.302 Goal=   None    Shift=    0.000
 Gap=     0.501 Goal=   None    Shift=    0.000
 GapD=    0.302 DampG=1.000 DampE=0.500 DampFc=0.5000 IDamp=-1.
 Damping current iteration by 5.00D-01
 RMSDP=3.49D-03 MaxDP=1.09D-01              OVMax= 8.22D-02

 Cycle   2  Pass 1  IDiag  1:
 E= -39.1396318548500     Delta-E=       -0.009969501671 Rises=F Damp=T
 DIIS: error= 1.41D-02 at cycle   2 NSaved=   2.
 NSaved= 2 IEnMin= 2 EnMin= -39.1396318548500     IErMin= 2 ErrMin= 1.41D-02
 ErrMax= 1.41D-02  0.00D+00 EMaxC= 1.00D-01 BMatC= 2.78D-02 BMatP= 1.35D-01
 IDIUse=3 WtCom= 8.59D-01 WtEn= 1.41D-01
 Coeff-Com: -0.579D+00 0.158D+01
 Coeff-En:   0.000D+00 0.100D+01
 Coeff:     -0.498D+00 0.150D+01
 Gap=     0.327 Goal=   None    Shift=    0.000
 Gap=     0.446 Goal=   None    Shift=    0.000
 RMSDP=2.25D-03 MaxDP=6.58D-02 DE=-9.97D-03 OVMax= 3.71D-02

 Cycle   3  Pass 1  IDiag  1:
 E= -39.1491349268553     Delta-E=       -0.009503072005 Rises=F Damp=F
 DIIS: error= 3.89D-03 at cycle   3 NSaved=   3.
 NSaved= 3 IEnMin= 3 EnMin= -39.1491349268553     IErMin= 3 ErrMin= 3.89D-03
 ErrMax= 3.89D-03  0.00D+00 EMaxC= 1.00D-01 BMatC= 1.36D-03 BMatP= 2.78D-02
 IDIUse=3 WtCom= 9.61D-01 WtEn= 3.89D-02
 Coeff-Com: -0.178D+00 0.324D+00 0.854D+00
 Coeff-En:   0.000D+00 0.000D+00 0.100D+01
 Coeff:     -0.172D+00 0.311D+00 0.860D+00
 Gap=     0.319 Goal=   None    Shift=    0.000
 Gap=     0.444 Goal=   None    Shift=    0.000
 RMSDP=2.90D-04 MaxDP=1.62D-02 DE=-9.50D-03 OVMax= 1.22D-02

 Cycle   4  Pass 1  IDiag  1:
 E= -39.1495234059857     Delta-E=       -0.000388479130 Rises=F Damp=F
 DIIS: error= 6.82D-04 at cycle   4 NSaved=   4.
 NSaved= 4 IEnMin= 4 EnMin= -39.1495234059857     IErMin= 4 ErrMin= 6.82D-04
 ErrMax= 6.82D-04  0.00D+00 EMaxC= 1.00D-01 BMatC= 6.56D-05 BMatP= 1.36D-03
 IDIUse=3 WtCom= 9.93D-01 WtEn= 6.82D-03
 Coeff-Com:  0.613D-01-0.124D+00-0.216D+00 0.128D+01
 Coeff-En:   0.000D+00 0.000D+00 0.000D+00 0.100D+01
 Coeff:      0.609D-01-0.123D+00-0.214D+00 0.128D+01
 Gap=     0.320 Goal=   None    Shift=    0.000
 Gap=     0.443 Goal=   None    Shift=    0.000
 RMSDP=1.22D-04 MaxDP=6.66D-03 DE=-3.88D-04 OVMax= 4.66D-03

 Cycle   5  Pass 1  IDiag  1:
 E= -39.1495587673449     Delta-E=       -0.000035361359 Rises=F Damp=F
 DIIS: error= 2.52D-04 at cycle   5 NSaved=   5.
 NSaved= 5 IEnMin= 5 EnMin= -39.1495587673449     IErMin= 5 ErrMin= 2.52D-04
 ErrMax= 2.52D-04  0.00D+00 EMaxC= 1.00D-01 BMatC= 5.21D-06 BMatP= 6.56D-05
 IDIUse=3 WtCom= 9.97D-01 WtEn= 2.52D-03
 Coeff-Com: -0.268D-02 0.718D-02-0.467D-02-0.150D+00 0.115D+01
 Coeff-En:   0.000D+00 0.000D+00 0.000D+00 0.000D+00 0.100D+01
 Coeff:     -0.268D-02 0.716D-02-0.466D-02-0.150D+00 0.115D+01
 Gap=     0.320 Goal=   None    Shift=    0.000
 Gap=     0.443 Goal=   None    Shift=    0.000
 RMSDP=2.87D-05 MaxDP=1.44D-03 DE=-3.54D-05 OVMax= 1.23D-03

 Cycle   6  Pass 1  IDiag  1:
 E= -39.1495608020658     Delta-E=       -0.000002034721 Rises=F Damp=F
 DIIS: error= 9.36D-05 at cycle   6 NSaved=   6.
 NSaved= 6 IEnMin= 6 EnMin= -39.1495608020658     IErMin= 6 ErrMin= 9.36D-05
 ErrMax= 9.36D-05  0.00D+00 EMaxC= 1.00D-01 BMatC= 7.29D-07 BMatP= 5.21D-06
 IDIUse=1 WtCom= 1.00D+00 WtEn= 0.00D+00
 Coeff-Com: -0.741D-02 0.149D-01 0.329D-01-0.134D+00-0.194D+00 0.129D+01
 Coeff:     -0.741D-02 0.149D-01 0.329D-01-0.134D+00-0.194D+00 0.129D+01
 Gap=     0.320 Goal=   None    Shift=    0.000
 Gap=     0.442 Goal=   None    Shift=    0.000
 RMSDP=1.54D-05 MaxDP=8.31D-04 DE=-2.03D-06 OVMax= 2.69D-04

 Cycle   7  Pass 1  IDiag  1:
 E= -39.1495609816262     Delta-E=       -0.000000179560 Rises=F Damp=F
 DIIS: error= 9.22D-06 at cycle   7 NSaved=   7.
 NSaved= 7 IEnMin= 7 EnMin= -39.1495609816262     IErMin= 7 ErrMin= 9.22D-06
 ErrMax= 9.22D-06  0.00D+00 EMaxC= 1.00D-01 BMatC= 1.28D-08 BMatP= 7.29D-07
 IDIUse=1 WtCom= 1.00D+00 WtEn= 0.00D+00
 Coeff-Com:  0.296D-03-0.567D-03 0.620D-03 0.363D-02-0.418D-01 0.570D-01
 Coeff-Com:  0.981D+00
 Coeff:      0.296D-03-0.567D-03 0.620D-03 0.363D-02-0.418D-01 0.570D-01
 Coeff:      0.981D+00
 Gap=     0.320 Goal=   None    Shift=    0.000
 Gap=     0.442 Goal=   None    Shift=    0.000
 RMSDP=1.10D-06 MaxDP=6.10D-05 DE=-1.80D-07 OVMax= 3.33D-05

 Cycle   8  Pass 1  IDiag  1:
 E= -39.1495609842079     Delta-E=       -0.000000002582 Rises=F Damp=F
 DIIS: error= 2.67D-06 at cycle   8 NSaved=   8.
 NSaved= 8 IEnMin= 8 EnMin= -39.1495609842079     IErMin= 8 ErrMin= 2.67D-06
 ErrMax= 2.67D-06  0.00D+00 EMaxC= 1.00D-01 BMatC= 7.72D-10 BMatP= 1.28D-08
 IDIUse=1 WtCom= 1.00D+00 WtEn= 0.00D+00
 Coeff-Com:  0.175D-03-0.354D-03-0.459D-03 0.263D-02 0.160D-03-0.255D-01
 Coeff-Com:  0.905D-01 0.933D+00
 Coeff:      0.175D-03-0.354D-03-0.459D-03 0.263D-02 0.160D-03-0.255D-01
 Coeff:      0.905D-01 0.933D+00
 Gap=     0.320 Goal=   None    Shift=    0.000
 Gap=     0.442 Goal=   None    Shift=    0.000
 RMSDP=3.80D-07 MaxDP=1.77D-05 DE=-2.58D-09 OVMax= 1.11D-05

 Cycle   9  Pass 1  IDiag  1:
 E= -39.1495609844233     Delta-E=       -0.000000000215 Rises=F Damp=F
 DIIS: error= 1.07D-06 at cycle   9 NSaved=   9.
 NSaved= 9 IEnMin= 9 EnMin= -39.1495609844233     IErMin= 9 ErrMin= 1.07D-06
 ErrMax= 1.07D-06  0.00D+00 EMaxC= 1.00D-01 BMatC= 8.23D-11 BMatP= 7.72D-10
 IDIUse=1 WtCom= 1.00D+00 WtEn= 0.00D+00
 Coeff-Com: -0.165D-04 0.286D-04 0.166D-04 0.124D-03 0.169D-02-0.458D-02
 Coeff-Com: -0.551D-01 0.941D-01 0.964D+00
 Coeff:     -0.165D-04 0.286D-04 0.166D-04 0.124D-03 0.169D-02-0.458D-02
 Coeff:     -0.551D-01 0.941D-01 0.964D+00
 Gap=     0.320 Goal=   None    Shift=    0.000
 Gap=     0.442 Goal=   None    Shift=    0.000
 RMSDP=1.46D-07 MaxDP=7.61D-06 DE=-2.15D-10 OVMax= 3.88D-06

 Cycle  10  Pass 1  IDiag  1:
 E= -39.1495609844533     Delta-E=       -0.000000000030 Rises=F Damp=F
 DIIS: error= 1.92D-07 at cycle  10 NSaved=  10.
 NSaved=10 IEnMin=10 EnMin= -39.1495609844533     IErMin=10 ErrMin= 1.92D-07
 ErrMax= 1.92D-07  0.00D+00 EMaxC= 1.00D-01 BMatC= 5.97D-12 BMatP= 8.23D-11
 IDIUse=1 WtCom= 1.00D+00 WtEn= 0.00D+00
 Coeff-Com: -0.809D-05 0.169D-04 0.100D-04-0.191D-03-0.471D-03 0.310D-02
 Coeff-Com: -0.215D-02-0.763D-01-0.217D+00 0.129D+01
 Coeff:     -0.809D-05 0.169D-04 0.100D-04-0.191D-03-0.471D-03 0.310D-02
 Coeff:     -0.215D-02-0.763D-01-0.217D+00 0.129D+01
 Gap=     0.320 Goal=   None    Shift=    0.000
 Gap=     0.442 Goal=   None    Shift=    0.000
 RMSDP=2.40D-08 MaxDP=9.56D-07 DE=-3.00D-11 OVMax= 1.70D-06

 Cycle  11  Pass 1  IDiag  1:
 E= -39.1495609844567     Delta-E=       -0.000000000003 Rises=F Damp=F
 DIIS: error= 3.92D-08 at cycle  11 NSaved=  11.
 NSaved=11 IEnMin=11 EnMin= -39.1495609844567     IErMin=11 ErrMin= 3.92D-08
 ErrMax= 3.92D-08  0.00D+00 EMaxC= 1.00D-01 BMatC= 1.55D-13 BMatP= 5.97D-12
 IDIUse=1 WtCom= 1.00D+00 WtEn= 0.00D+00
 Coeff-Com:  0.795D-06-0.154D-05 0.139D-05 0.357D-05-0.295D-04-0.804D-04
 Coeff-Com:  0.138D-02 0.997D-02 0.108D-02-0.235D+00 0.122D+01
 Coeff:      0.795D-06-0.154D-05 0.139D-05 0.357D-05-0.295D-04-0.804D-04
 Coeff:      0.138D-02 0.997D-02 0.108D-02-0.235D+00 0.122D+01
 Gap=     0.320 Goal=   None    Shift=    0.000
 Gap=     0.442 Goal=   None    Shift=    0.000
 RMSDP=5.85D-09 MaxDP=3.28D-07 DE=-3.41D-12 OVMax= 2.17D-07

 SCF Done:  E(UM062X) =  -39.1495609845     A.U. after   11 cycles
            NFock= 11  Conv=0.58D-08     -V/T= 2.0039
 <Sx>= 0.0000 <Sy>= 0.0000 <Sz>= 1.0000 <S**2>= 2.0059 S= 1.0020
 <L.S>= 0.000000000000E+00
 KE= 3.899733228909D+01 PE=-1.029582335663D+02 EE= 1.864945801339D+01
 Annihilation of the first spin contaminant:
 S**2 before annihilation     2.0059,   after     2.0000
 Leave Link  502 at Sat Apr 17 10:43:31 2021, MaxMem=   104857600 cpu:            4373.3 elap:              95.4
 (Enter /s/ls4/users/knvvv/bin/g16sse/l601.exe)
 Copying SCF densities to generalized density rwf, IOpCl= 1 IROHF=0.

 **********************************************************************

            Population analysis using the SCF density.

 **********************************************************************

 Orbital symmetries:
 Alpha Orbitals:
       Occupied  (A1) (A1) (B2) (A1) (B1)
       Virtual   (A1) (B2) (A1) (A1) (B2) (B1) (A2) (A1) (B1) (A1)
                 (B2) (B2) (B1) (A1) (A2) (A1) (B2) (A1) (B2) (A2)
                 (A1) (A1) (B1) (B2) (A1) (B1) (B2) (A1) (B2) (B1)
                 (A2) (A1) (A1) (B2) (A1) (B2) (B1) (A1) (A2) (A2)
                 (A1) (B2) (B1) (A1) (B1) (A1) (B2) (B2) (A2) (B1)
                 (A1) (B2) (A1) (A1) (A2) (B2) (B1) (B1) (A1) (B2)
                 (A1) (B2) (A2) (A1) (B1) (B2) (A1) (B2) (A1) (B1)
                 (A2) (B2) (A1) (A2) (B1) (B2) (B1) (A2) (B2) (A1)
                 (B1) (A1) (B2) (A1) (A2) (A1) (B1) (B2) (A1) (B1)
                 (A1) (B2) (A2) (A1) (B1) (A1) (B2) (A2) (B1) (A1)
                 (B2) (A2) (B2) (A1) (B2) (A2) (A1) (B1) (B2) (A1)
                 (B1) (A1) (B2) (A2) (B2) (A1) (A2) (B1) (B2) (A1)
                 (B2) (A1) (A1) (A1)
 Beta  Orbitals:
       Occupied  (A1) (A1) (B2)
       Virtual   (A1) (B1) (A1) (B2) (A1) (B2) (A2) (A1) (B1) (A1)
                 (B1) (A1) (B2) (B1) (A1) (B2) (A2) (A1) (B2) (A1)
                 (B2) (A1) (A1) (A2) (B1) (B2) (A1) (A1) (B1) (B2)
                 (B2) (B1) (A2) (A1) (A1) (B2) (A1) (B2) (B1) (A1)
                 (A2) (A1) (A2) (B1) (A1) (B2) (B1) (B2) (A1) (B2)
                 (A2) (A1) (B1) (B2) (A1) (A2) (A1) (B2) (B1) (B1)
                 (A1) (B2) (A1) (B2) (A2) (B1) (A1) (B2) (A1) (B2)
                 (B1) (A1) (A2) (B2) (A1) (A2) (B1) (B2) (A1) (B1)
                 (B2) (A2) (A1) (B1) (A1) (A2) (B1) (B2) (A1) (A1)
                 (B2) (B1) (B2) (A1) (A2) (A1) (B1) (A1) (B2) (A2)
                 (B2) (B1) (A1) (A2) (B2) (A1) (A1) (B1) (B2) (A2)
                 (B2) (A1) (A1) (A2) (B1) (B2) (B2) (B1) (A2) (A1)
                 (B2) (A1) (B2) (A1) (A1) (A1)
 The electronic state is 3-B1.
 Alpha  occ. eigenvalues --  -10.57675  -0.76742  -0.52450  -0.34490  -0.30478
 Alpha virt. eigenvalues --    0.01498   0.09091   0.12166   0.16244   0.17172
 Alpha virt. eigenvalues --    0.18421   0.18873   0.20599   0.20808   0.21909
 Alpha virt. eigenvalues --    0.26589   0.28367   0.28655   0.29207   0.29720
 Alpha virt. eigenvalues --    0.31969   0.35153   0.40569   0.47179   0.59797
 Alpha virt. eigenvalues --    0.62768   0.63965   0.64612   0.70541   0.71795
 Alpha virt. eigenvalues --    0.77506   0.87644   0.89066   0.89132   0.92223
 Alpha virt. eigenvalues --    1.00409   1.01223   1.23568   1.27522   1.30807
 Alpha virt. eigenvalues --    1.33543   1.65798   1.67830   1.81139   1.87217
 Alpha virt. eigenvalues --    1.88678   1.90824   1.94203   1.95695   1.97418
 Alpha virt. eigenvalues --    1.99106   2.04074   2.11489   2.30092   2.38099
 Alpha virt. eigenvalues --    2.39536   2.41639   2.49534   2.58391   2.58746
 Alpha virt. eigenvalues --    2.61999   2.65339   2.70470   2.77132   2.82228
 Alpha virt. eigenvalues --    3.24422   3.29236   3.37530   3.52823   3.55359
 Alpha virt. eigenvalues --    3.69880   3.73705   4.06285   4.62455   4.62702
 Alpha virt. eigenvalues --    4.85854   4.91745   5.02150   5.21067   5.32324
 Alpha virt. eigenvalues --    5.35086   5.47964   5.53629   5.56430   5.58389
 Alpha virt. eigenvalues --    5.61576   5.64303   5.84543   5.85586   5.88245
 Alpha virt. eigenvalues --    5.88946   5.97148   6.00336   6.16834   6.20862
 Alpha virt. eigenvalues --    6.34436   6.50624   6.57441   6.59410   6.90912
 Alpha virt. eigenvalues --    7.15573   7.28232   7.33444   7.35059   7.35246
 Alpha virt. eigenvalues --    7.36610   7.42609   7.50376   7.56311   7.85776
 Alpha virt. eigenvalues --    7.88391   7.89439   7.90790   7.94824   8.16513
 Alpha virt. eigenvalues --    8.40732   8.42211   8.42313   8.43367   9.49138
 Alpha virt. eigenvalues --    9.53066   9.63528   9.66159   9.88389  10.48440
 Alpha virt. eigenvalues --   11.27379  12.08385  28.29022 145.84530
  Beta  occ. eigenvalues --  -10.55794  -0.67887  -0.50361
  Beta virt. eigenvalues --   -0.06137  -0.03373   0.02806   0.09003   0.11699
  Beta virt. eigenvalues --    0.14800   0.15558   0.15656   0.15863   0.18164
  Beta virt. eigenvalues --    0.20510   0.21112   0.25987   0.26934   0.27126
  Beta virt. eigenvalues --    0.27335   0.28623   0.33243   0.37011   0.42216
  Beta virt. eigenvalues --    0.48622   0.60951   0.61305   0.61405   0.61615
  Beta virt. eigenvalues --    0.70084   0.72132   0.79149   0.79336   0.82512
  Beta virt. eigenvalues --    0.86871   0.87162   0.94299   0.98550   1.16392
  Beta virt. eigenvalues --    1.23662   1.28979   1.36561   1.58627   1.60887
  Beta virt. eigenvalues --    1.83001   1.86159   1.89523   1.90727   1.94271
  Beta virt. eigenvalues --    1.95950   1.97704   2.01010   2.02218   2.10559
  Beta virt. eigenvalues --    2.26636   2.38017   2.38537   2.39077   2.43617
  Beta virt. eigenvalues --    2.56599   2.58710   2.60792   2.64411   2.68444
  Beta virt. eigenvalues --    2.74364   2.80526   3.25383   3.31995   3.37929
  Beta virt. eigenvalues --    3.55607   3.56843   3.75981   3.86822   4.04848
  Beta virt. eigenvalues --    4.62399   4.62558   4.94825   5.00415   5.15536
  Beta virt. eigenvalues --    5.36197   5.42308   5.60080   5.72783   5.76219
  Beta virt. eigenvalues --    5.86820   5.87233   5.87772   5.97553   5.99424
  Beta virt. eigenvalues --    6.02667   6.04014   6.04131   6.14340   6.25877
  Beta virt. eigenvalues --    6.31463   6.63053   6.63264   6.69418   6.80568
  Beta virt. eigenvalues --    6.88221   7.01622   7.32488   7.33170   7.41630
  Beta virt. eigenvalues --    7.44663   7.48574   7.54102   7.55746   7.58356
  Beta virt. eigenvalues --    7.71054   7.97405   7.97588   8.01978   8.09422
  Beta virt. eigenvalues --    8.20223   8.53349   8.60707   8.73214   8.84780
  Beta virt. eigenvalues --    9.12767  10.40953  10.56619  10.70531  11.24578
  Beta virt. eigenvalues --   11.46165  11.59133  12.88849  13.45619  28.55264
  Beta virt. eigenvalues --  145.87694
          Condensed to atoms (all electrons):
               1          2          3
     1  C    5.719980   0.353410   0.353410
     2  H    0.353410   0.599374  -0.166185
     3  H    0.353410  -0.166185   0.599374
          Atomic-Atomic Spin Densities.
               1          2          3
     1  C    2.265132   0.000940   0.000940
     2  H    0.000940  -0.267037   0.132592
     3  H    0.000940   0.132592  -0.267037
 Mulliken charges and spin densities:
               1          2
     1  C   -0.426801   2.267011
     2  H    0.213400  -0.133506
     3  H    0.213400  -0.133506
 Sum of Mulliken charges =  -0.00000   2.00000
 Mulliken charges and spin densities with hydrogens summed into heavy atoms:
               1          2
     1  C   -0.000000   2.000000
 Electronic spatial extent (au):  <R**2>=             24.3387
 Charge=             -0.0000 electrons
 Dipole moment (field-independent basis, Debye):
    X=             -0.0000    Y=              0.0000    Z=             -0.5882  Tot=              0.5882
 Quadrupole moment (field-independent basis, Debye-Ang):
   XX=             -8.3138   YY=             -5.9316   ZZ=             -7.7747
   XY=              0.0000   XZ=              0.0000   YZ=              0.0000
 Traceless Quadrupole moment (field-independent basis, Debye-Ang):
   XX=             -0.9737   YY=              1.4084   ZZ=             -0.4347
   XY=              0.0000   XZ=              0.0000   YZ=              0.0000
 Octapole moment (field-independent basis, Debye-Ang**2):
  XXX=              0.0000  YYY=              0.0000  ZZZ=             -0.9734  XYY=             -0.0000
  XXY=              0.0000  XXZ=             -0.3282  XZZ=              0.0000  YZZ=             -0.0000
  YYZ=             -1.0274  XYZ=             -0.0000
 Hexadecapole moment (field-independent basis, Debye-Ang**3):
 XXXX=            -10.6678 YYYY=            -13.6235 ZZZZ=            -10.9744 XXXY=             -0.0000
 XXXZ=             -0.0000 YYYX=             -0.0000 YYYZ=             -0.0000 ZZZX=             -0.0000
 ZZZY=              0.0000 XXYY=             -4.6667 XXZZ=             -3.6213 YYZZ=             -4.3093
 XXYZ=              0.0000 YYXZ=              0.0000 ZZXY=             -0.0000
 N-N= 6.161882279356D+00 E-N=-1.029582335496D+02  KE= 3.899733228909D+01
                          Isotropic Fermi Contact Couplings
        Atom                 a.u.       MegaHertz       Gauss      10(-4) cm-1
     1  C(13)              0.60281     338.83432     120.90451     113.02296
     2  H(1)               0.00152       3.40795       1.21604       1.13677
     3  H(1)               0.00152       3.40795       1.21604       1.13677
 PrsmSu:  requested number of processors reduced to:  21 ShMem   1 Linda.
 --------------------------------------------------------
       Center         ----  Spin Dipole Couplings  ----
                      3XX-RR        3YY-RR        3ZZ-RR
 --------------------------------------------------------
     1   Atom        0.695050     -1.110689      0.415639
     2   Atom       -0.062436      0.118260     -0.055823
     3   Atom       -0.062436      0.118260     -0.055823
 --------------------------------------------------------
                        XY            XZ            YZ
 --------------------------------------------------------
     1   Atom       -0.000000      0.000000      0.000000
     2   Atom        0.000000     -0.000000     -0.078943
     3   Atom        0.000000      0.000000      0.078943
 --------------------------------------------------------


 ---------------------------------------------------------------------------------
              Anisotropic Spin Dipole Couplings in Principal Axis System
 ---------------------------------------------------------------------------------

       Atom             a.u.   MegaHertz   Gauss  10(-4) cm-1        Axes

              Baa    -1.1107  -149.044   -53.183   -49.716 -0.0000  1.0000 -0.0000
     1 C(13)  Bbb     0.4156    55.775    19.902    18.604  0.0000  0.0000  1.0000
              Bcc     0.6951    93.269    33.281    31.111  1.0000 -0.0000  0.0000
 
              Baa    -0.0863   -46.040   -16.428   -15.357  0.0000  0.3601  0.9329
     2 H(1)   Bbb    -0.0624   -33.313   -11.887   -11.112  1.0000 -0.0000  0.0000
              Bcc     0.1487    79.354    28.315    26.469  0.0000  0.9329 -0.3601
 
              Baa    -0.0863   -46.040   -16.428   -15.357 -0.0000 -0.3601  0.9329
     3 H(1)   Bbb    -0.0624   -33.313   -11.887   -11.112  1.0000 -0.0000  0.0000
              Bcc     0.1487    79.354    28.315    26.469  0.0000  0.9329  0.3601
 

 ---------------------------------------------------------------------------------

 PrsmSu:  requested number of processors reduced to:  21 ShMem   1 Linda.
 No NMR shielding tensors so no spin-rotation constants.
 Leave Link  601 at Sat Apr 17 10:43:35 2021, MaxMem=   104857600 cpu:             161.7 elap:               3.6
 (Enter /s/ls4/users/knvvv/bin/g16sse/l801.exe)
 DoSCS=F DFT=T ScalE2(SS,OS)=  1.000000  1.000000
 Range of M.O.s used for correlation:     1   129
 NBasis=   129 NAE=     5 NBE=     3 NFC=     0 NFV=     0
 NROrb=    129 NOA=     5 NOB=     3 NVA=   124 NVB=   126

 **** Warning!!: The largest alpha MO coefficient is  0.76998349D+02


 **** Warning!!: The largest beta MO coefficient is  0.78183676D+02

 Leave Link  801 at Sat Apr 17 10:43:35 2021, MaxMem=   104857600 cpu:               5.0 elap:               0.2
 (Enter /s/ls4/users/knvvv/bin/g16sse/l914.exe)
 UHF ground state
 Doing stability rather than CIS.
 Two-electron integrals replicated using symmetry.
 MDV=   104857600 DFT=T DoStab=T Mixed=T DoRPA=F DoScal=F NonHer=F
 Making orbital integer symmetry assigments:
 Orbital symmetries:
 Alpha Orbitals:
       Occupied  (A1) (A1) (B2) (A1) (B1)
       Virtual   (A1) (B2) (A1) (A1) (B2) (B1) (A2) (A1) (B1) (A1)
                 (B2) (B2) (B1) (A1) (A2) (A1) (B2) (A1) (B2) (A2)
                 (A1) (A1) (B1) (B2) (A1) (B1) (B2) (A1) (B2) (B1)
                 (A2) (A1) (A1) (B2) (A1) (B2) (B1) (A1) (A2) (A2)
                 (A1) (B2) (B1) (A1) (B1) (A1) (B2) (B2) (A2) (B1)
                 (A1) (B2) (A1) (A1) (A2) (B2) (B1) (B1) (A1) (B2)
                 (A1) (B2) (A2) (A1) (B1) (B2) (A1) (B2) (A1) (B1)
                 (A2) (B2) (A1) (A2) (B1) (B2) (B1) (A2) (B2) (A1)
                 (B1) (A1) (B2) (A1) (A2) (A1) (B1) (B2) (A1) (B1)
                 (A1) (B2) (A2) (A1) (B1) (A1) (B2) (A2) (B1) (A1)
                 (B2) (A2) (B2) (A1) (B2) (A2) (A1) (B1) (B2) (A1)
                 (B1) (A1) (B2) (A2) (B2) (A1) (A2) (B1) (B2) (A1)
                 (B2) (A1) (A1) (A1)
 Beta  Orbitals:
       Occupied  (A1) (A1) (B2)
       Virtual   (A1) (B1) (A1) (B2) (A1) (B2) (A2) (A1) (B1) (A1)
                 (B1) (A1) (B2) (B1) (A1) (B2) (A2) (A1) (B2) (A1)
                 (B2) (A1) (A1) (A2) (B1) (B2) (A1) (A1) (B1) (B2)
                 (B2) (B1) (A2) (A1) (A1) (B2) (A1) (B2) (B1) (A1)
                 (A2) (A1) (A2) (B1) (A1) (B2) (B1) (B2) (A1) (B2)
                 (A2) (A1) (B1) (B2) (A1) (A2) (A1) (B2) (B1) (B1)
                 (A1) (B2) (A1) (B2) (A2) (B1) (A1) (B2) (A1) (B2)
                 (B1) (A1) (A2) (B2) (A1) (A2) (B1) (B2) (A1) (B1)
                 (B2) (A2) (A1) (B1) (A1) (A2) (B1) (B2) (A1) (A1)
                 (B2) (B1) (B2) (A1) (A2) (A1) (B1) (A1) (B2) (A2)
                 (B2) (B1) (A1) (A2) (B2) (A1) (A1) (B1) (B2) (A2)
                 (B2) (A1) (A1) (A2) (B1) (B2) (B2) (B1) (A2) (A1)
                 (B2) (A1) (B2) (A1) (A1) (A1)
    12 initial guesses have been made.
 Convergence on wavefunction:    0.001000000000000
 Davidson Disk Diagonalization:  ConvIn= 1.00D-03 SkipCon=T Conv= 1.00D-03.
 Max sub-space:  1996 roots to seek:    12 dimension of matrix:          998
 Iteration     1 Dimension    12 NMult     0 NNew     12
 Estimated number of processors is:   20
 CISAX will form     1 AO SS matrices at one time.
 NMat=     1 NSing=     1 JSym2X= 2.
 FoFJK:  IHMeth= 1 ICntrl=       0 DoSepK=F KAlg= 0 I1Cent=           0 FoldK=F
 IRaf= 990000000 NMat=       1 IRICut=       1 DoRegI=T DoRafI=F ISym2E= 2 IDoP0=0 IntGTp=1.
 FoFCou: FMM=F IPFlag=           0 FMFlag=      100000 FMFlg1=           0
         NFxFlg=           0 DoJE=F BraDBF=F KetDBF=F FulRan=T
         wScrn=  0.000000 ICntrl=         0 IOpCl=  1 I1Cent=           0 NGrid=           0
         NMat0=    1 NMatS0=      1 NMatT0=    0 NMatD0=    1 NMtDS0=    0 NMtDT0=    0
 Integrals replicated using symmetry in FoFCou.
 CoulSu:  requested number of processors reduced to:  18 ShMem   1 Linda.
 NMat=     1 NSing=     1 JSym2X= 2.
 CoulSu:  requested number of processors reduced to:  18 ShMem   1 Linda.
 NMat=     1 NSing=     1 JSym2X= 2.
 CoulSu:  requested number of processors reduced to:  18 ShMem   1 Linda.
 NMat=     1 NSing=     1 JSym2X= 2.
 CoulSu:  requested number of processors reduced to:  18 ShMem   1 Linda.
 NMat=     1 NSing=     1 JSym2X= 2.
 CoulSu:  requested number of processors reduced to:  18 ShMem   1 Linda.
 NMat=     1 NSing=     1 JSym2X= 2.
 CoulSu:  requested number of processors reduced to:  18 ShMem   1 Linda.
 NMat=     1 NSing=     1 JSym2X= 2.
 CoulSu:  requested number of processors reduced to:  18 ShMem   1 Linda.
 NMat=     1 NSing=     1 JSym2X= 2.
 CoulSu:  requested number of processors reduced to:  18 ShMem   1 Linda.
 NMat=     1 NSing=     1 JSym2X= 2.
 CoulSu:  requested number of processors reduced to:  18 ShMem   1 Linda.
 NMat=     1 NSing=     1 JSym2X= 2.
 CoulSu:  requested number of processors reduced to:  18 ShMem   1 Linda.
 NMat=     1 NSing=     1 JSym2X= 2.
 CoulSu:  requested number of processors reduced to:  18 ShMem   1 Linda.
 NMat=     1 NSing=     1 JSym2X= 2.
 CoulSu:  requested number of processors reduced to:  18 ShMem   1 Linda.
 Excitation Energies [eV] at current iteration:
 Root      1 :     6.372189384263746
 Root      2 :     7.443104792430849
 Root      3 :     7.922579144436998
 Root      4 :     8.026096086118686
 Root      5 :     8.485613566457886
 Root      6 :     8.693896485303021
 Root      7 :     9.269950128280822
 Root      8 :     9.380608501138388
 Root      9 :     9.604404906172860
 Root     10 :     9.733144238647293
 Root     11 :    10.470250679172040
 Root     12 :    10.997666629218360
 Iteration     2 Dimension    24 NMult    12 NNew     12
 Estimated number of processors is:   20
 CISAX will form     1 AO SS matrices at one time.
 NMat=     1 NSing=     1 JSym2X= 2.
 CoulSu:  requested number of processors reduced to:  18 ShMem   1 Linda.
 NMat=     1 NSing=     1 JSym2X= 2.
 CoulSu:  requested number of processors reduced to:  18 ShMem   1 Linda.
 NMat=     1 NSing=     1 JSym2X= 2.
 CoulSu:  requested number of processors reduced to:  18 ShMem   1 Linda.
 NMat=     1 NSing=     1 JSym2X= 2.
 CoulSu:  requested number of processors reduced to:  18 ShMem   1 Linda.
 NMat=     1 NSing=     1 JSym2X= 2.
 CoulSu:  requested number of processors reduced to:  18 ShMem   1 Linda.
 NMat=     1 NSing=     1 JSym2X= 2.
 CoulSu:  requested number of processors reduced to:  18 ShMem   1 Linda.
 NMat=     1 NSing=     1 JSym2X= 2.
 CoulSu:  requested number of processors reduced to:  18 ShMem   1 Linda.
 NMat=     1 NSing=     1 JSym2X= 2.
 CoulSu:  requested number of processors reduced to:  18 ShMem   1 Linda.
 NMat=     1 NSing=     1 JSym2X= 2.
 CoulSu:  requested number of processors reduced to:  18 ShMem   1 Linda.
 NMat=     1 NSing=     1 JSym2X= 2.
 CoulSu:  requested number of processors reduced to:  18 ShMem   1 Linda.
 NMat=     1 NSing=     1 JSym2X= 2.
 CoulSu:  requested number of processors reduced to:  18 ShMem   1 Linda.
 NMat=     1 NSing=     1 JSym2X= 2.
 CoulSu:  requested number of processors reduced to:  18 ShMem   1 Linda.
 Root      1 not converged, maximum delta is    0.186112979090883
 Excitation Energies [eV] at current iteration:
 Root      1 :     6.095913725537582   Change is   -0.276275658726164
 Root      2 :     7.018579832569896   Change is   -0.903999311867102
 Root      3 :     7.202119151217947   Change is   -0.240985641212901
 Root      4 :     7.495333070344401   Change is   -0.530763015774285
 Root      5 :     7.940985780303459   Change is   -0.544627786154427
 Root      6 :     8.217635310278078   Change is   -0.476261175024944
 Root      7 :     9.013451094784743   Change is   -0.256499033496080
 Root      8 :     9.057573997574144   Change is   -0.323034503564246
 Root      9 :     9.135677365728766   Change is   -0.468727540444096
 Root     10 :     9.529848443646063   Change is   -0.203295795001231
 Root     11 :     9.762107129191333   Change is   -1.235559500027028
 Root     12 :    10.121600347716410   Change is   -0.348650331455637
 Iteration     3 Dimension    27 NMult    24 NNew      3
 Estimated number of processors is:   20
 CISAX will form     1 AO SS matrices at one time.
 NMat=     1 NSing=     1 JSym2X= 2.
 CoulSu:  requested number of processors reduced to:  18 ShMem   1 Linda.
 NMat=     1 NSing=     1 JSym2X= 2.
 CoulSu:  requested number of processors reduced to:  18 ShMem   1 Linda.
 NMat=     1 NSing=     1 JSym2X= 2.
 CoulSu:  requested number of processors reduced to:  18 ShMem   1 Linda.
 Root      1 not converged, maximum delta is    0.031097059801287
 Excitation Energies [eV] at current iteration:
 Root      1 :     6.064495747599202   Change is   -0.031417977938380
 Root      2 :     6.907817833053491   Change is   -0.110761999516405
 Root      3 :     7.182015900887738   Change is   -0.020103250330210
 Iteration     4 Dimension    30 NMult    27 NNew      3
 Estimated number of processors is:   20
 CISAX will form     1 AO SS matrices at one time.
 NMat=     1 NSing=     1 JSym2X= 2.
 CoulSu:  requested number of processors reduced to:  18 ShMem   1 Linda.
 NMat=     1 NSing=     1 JSym2X= 2.
 CoulSu:  requested number of processors reduced to:  18 ShMem   1 Linda.
 NMat=     1 NSing=     1 JSym2X= 2.
 CoulSu:  requested number of processors reduced to:  18 ShMem   1 Linda.
 Root      1 not converged, maximum delta is    0.013331314687312
 Excitation Energies [eV] at current iteration:
 Root      1 :     6.061187858755638   Change is   -0.003307888843564
 Root      2 :     6.905039468803656   Change is   -0.002778364249836
 Root      3 :     7.179614448447134   Change is   -0.002401452440603
 Iteration     5 Dimension    33 NMult    30 NNew      3
 Estimated number of processors is:   20
 CISAX will form     1 AO SS matrices at one time.
 NMat=     1 NSing=     1 JSym2X= 2.
 CoulSu:  requested number of processors reduced to:  18 ShMem   1 Linda.
 NMat=     1 NSing=     1 JSym2X= 2.
 CoulSu:  requested number of processors reduced to:  18 ShMem   1 Linda.
 NMat=     1 NSing=     1 JSym2X= 2.
 CoulSu:  requested number of processors reduced to:  18 ShMem   1 Linda.
 Root      1 not converged, maximum delta is    0.002138790323342
 Excitation Energies [eV] at current iteration:
 Root      1 :     6.060974869358818   Change is   -0.000212989396820
 Root      2 :     6.904542427391727   Change is   -0.000497041411929
 Root      3 :     7.179300128107386   Change is   -0.000314320339749
 Iteration     6 Dimension    36 NMult    33 NNew      3
 Estimated number of processors is:   20
 CISAX will form     1 AO SS matrices at one time.
 NMat=     1 NSing=     1 JSym2X= 2.
 CoulSu:  requested number of processors reduced to:  18 ShMem   1 Linda.
 NMat=     1 NSing=     1 JSym2X= 2.
 CoulSu:  requested number of processors reduced to:  18 ShMem   1 Linda.
 NMat=     1 NSing=     1 JSym2X= 2.
 CoulSu:  requested number of processors reduced to:  18 ShMem   1 Linda.
 Root      1 has converged.
 Excitation Energies [eV] at current iteration:
 Root      1 :     6.060964479494745   Change is   -0.000010389864073
 Root      2 :     6.904506651489031   Change is   -0.000035775902695
 Root      3 :     7.179252042839058   Change is   -0.000048085268328
 Convergence achieved on expansion vectors.
 ***********************************************************************
 Stability analysis using <AA,BB:AA,BB> singles matrix:
 ***********************************************************************
 1PDM for each excited state written to RWF  633
 Ground to excited state transition densities written to RWF  633

 Eigenvectors of the stability matrix:
 
 Eigenvector   1:  3.005-B1   Eigenvalue= 0.2227363  <S**2>=2.008
      5A ->  6A        0.94693
      5A ->  8A        0.20451
      5A -> 15A       -0.20816
 The wavefunction is stable under the perturbations considered.
 Leave Link  914 at Sat Apr 17 10:44:39 2021, MaxMem=   104857600 cpu:            2408.7 elap:              63.5
 (Enter /s/ls4/users/knvvv/bin/g16sse/l508.exe)
 The wavefunction is already stable.
 Leave Link  508 at Sat Apr 17 10:44:39 2021, MaxMem=   104857600 cpu:               2.2 elap:               0.1
 (Enter /s/ls4/users/knvvv/bin/g16sse/l601.exe)
 Copying SCF densities to generalized density rwf, IOpCl= 1 IROHF=0.

 **********************************************************************

            Population analysis using the SCF density.

 **********************************************************************

 Orbital symmetries:
 Alpha Orbitals:
       Occupied  (A1) (A1) (B2) (A1) (B1)
       Virtual   (A1) (B2) (A1) (A1) (B2) (B1) (A2) (A1) (B1) (A1)
                 (B2) (B2) (B1) (A1) (A2) (A1) (B2) (A1) (B2) (A2)
                 (A1) (A1) (B1) (B2) (A1) (B1) (B2) (A1) (B2) (B1)
                 (A2) (A1) (A1) (B2) (A1) (B2) (B1) (A1) (A2) (A2)
                 (A1) (B2) (B1) (A1) (B1) (A1) (B2) (B2) (A2) (B1)
                 (A1) (B2) (A1) (A1) (A2) (B2) (B1) (B1) (A1) (B2)
                 (A1) (B2) (A2) (A1) (B1) (B2) (A1) (B2) (A1) (B1)
                 (A2) (B2) (A1) (A2) (B1) (B2) (B1) (A2) (B2) (A1)
                 (B1) (A1) (B2) (A1) (A2) (A1) (B1) (B2) (A1) (B1)
                 (A1) (B2) (A2) (A1) (B1) (A1) (B2) (A2) (B1) (A1)
                 (B2) (A2) (B2) (A1) (B2) (A2) (A1) (B1) (B2) (A1)
                 (B1) (A1) (B2) (A2) (B2) (A1) (A2) (B1) (B2) (A1)
                 (B2) (A1) (A1) (A1)
 Beta  Orbitals:
       Occupied  (A1) (A1) (B2)
       Virtual   (A1) (B1) (A1) (B2) (A1) (B2) (A2) (A1) (B1) (A1)
                 (B1) (A1) (B2) (B1) (A1) (B2) (A2) (A1) (B2) (A1)
                 (B2) (A1) (A1) (A2) (B1) (B2) (A1) (A1) (B1) (B2)
                 (B2) (B1) (A2) (A1) (A1) (B2) (A1) (B2) (B1) (A1)
                 (A2) (A1) (A2) (B1) (A1) (B2) (B1) (B2) (A1) (B2)
                 (A2) (A1) (B1) (B2) (A1) (A2) (A1) (B2) (B1) (B1)
                 (A1) (B2) (A1) (B2) (A2) (B1) (A1) (B2) (A1) (B2)
                 (B1) (A1) (A2) (B2) (A1) (A2) (B1) (B2) (A1) (B1)
                 (B2) (A2) (A1) (B1) (A1) (A2) (B1) (B2) (A1) (A1)
                 (B2) (B1) (B2) (A1) (A2) (A1) (B1) (A1) (B2) (A2)
                 (B2) (B1) (A1) (A2) (B2) (A1) (A1) (B1) (B2) (A2)
                 (B2) (A1) (A1) (A2) (B1) (B2) (B2) (B1) (A2) (A1)
                 (B2) (A1) (B2) (A1) (A1) (A1)
 The electronic state is 3-B1.
 Alpha  occ. eigenvalues --  -10.57675  -0.76742  -0.52450  -0.34490  -0.30478
 Alpha virt. eigenvalues --    0.01498   0.09091   0.12166   0.16244   0.17172
 Alpha virt. eigenvalues --    0.18421   0.18873   0.20599   0.20808   0.21909
 Alpha virt. eigenvalues --    0.26589   0.28367   0.28655   0.29207   0.29720
 Alpha virt. eigenvalues --    0.31969   0.35153   0.40569   0.47179   0.59797
 Alpha virt. eigenvalues --    0.62768   0.63965   0.64612   0.70541   0.71795
 Alpha virt. eigenvalues --    0.77506   0.87644   0.89066   0.89132   0.92223
 Alpha virt. eigenvalues --    1.00409   1.01223   1.23568   1.27522   1.30807
 Alpha virt. eigenvalues --    1.33543   1.65798   1.67830   1.81139   1.87217
 Alpha virt. eigenvalues --    1.88678   1.90824   1.94203   1.95695   1.97418
 Alpha virt. eigenvalues --    1.99106   2.04074   2.11489   2.30092   2.38099
 Alpha virt. eigenvalues --    2.39536   2.41639   2.49534   2.58391   2.58746
 Alpha virt. eigenvalues --    2.61999   2.65339   2.70470   2.77132   2.82228
 Alpha virt. eigenvalues --    3.24422   3.29236   3.37530   3.52823   3.55359
 Alpha virt. eigenvalues --    3.69880   3.73705   4.06285   4.62455   4.62702
 Alpha virt. eigenvalues --    4.85854   4.91745   5.02150   5.21067   5.32324
 Alpha virt. eigenvalues --    5.35086   5.47964   5.53629   5.56430   5.58389
 Alpha virt. eigenvalues --    5.61576   5.64303   5.84543   5.85586   5.88245
 Alpha virt. eigenvalues --    5.88946   5.97148   6.00336   6.16834   6.20862
 Alpha virt. eigenvalues --    6.34436   6.50624   6.57441   6.59410   6.90912
 Alpha virt. eigenvalues --    7.15573   7.28232   7.33444   7.35059   7.35246
 Alpha virt. eigenvalues --    7.36610   7.42609   7.50376   7.56311   7.85776
 Alpha virt. eigenvalues --    7.88391   7.89439   7.90790   7.94824   8.16513
 Alpha virt. eigenvalues --    8.40732   8.42211   8.42313   8.43367   9.49138
 Alpha virt. eigenvalues --    9.53066   9.63528   9.66159   9.88389  10.48440
 Alpha virt. eigenvalues --   11.27379  12.08385  28.29022 145.84530
  Beta  occ. eigenvalues --  -10.55794  -0.67887  -0.50361
  Beta virt. eigenvalues --   -0.06137  -0.03373   0.02806   0.09003   0.11699
  Beta virt. eigenvalues --    0.14800   0.15558   0.15656   0.15863   0.18164
  Beta virt. eigenvalues --    0.20510   0.21112   0.25987   0.26934   0.27126
  Beta virt. eigenvalues --    0.27335   0.28623   0.33243   0.37011   0.42216
  Beta virt. eigenvalues --    0.48622   0.60951   0.61305   0.61405   0.61615
  Beta virt. eigenvalues --    0.70084   0.72132   0.79149   0.79336   0.82512
  Beta virt. eigenvalues --    0.86871   0.87162   0.94299   0.98550   1.16392
  Beta virt. eigenvalues --    1.23662   1.28979   1.36561   1.58627   1.60887
  Beta virt. eigenvalues --    1.83001   1.86159   1.89523   1.90727   1.94271
  Beta virt. eigenvalues --    1.95950   1.97704   2.01010   2.02218   2.10559
  Beta virt. eigenvalues --    2.26636   2.38017   2.38537   2.39077   2.43617
  Beta virt. eigenvalues --    2.56599   2.58710   2.60792   2.64411   2.68444
  Beta virt. eigenvalues --    2.74364   2.80526   3.25383   3.31995   3.37929
  Beta virt. eigenvalues --    3.55607   3.56843   3.75981   3.86822   4.04848
  Beta virt. eigenvalues --    4.62399   4.62558   4.94825   5.00415   5.15536
  Beta virt. eigenvalues --    5.36197   5.42308   5.60080   5.72783   5.76219
  Beta virt. eigenvalues --    5.86820   5.87233   5.87772   5.97553   5.99424
  Beta virt. eigenvalues --    6.02667   6.04014   6.04131   6.14340   6.25877
  Beta virt. eigenvalues --    6.31463   6.63053   6.63264   6.69418   6.80568
  Beta virt. eigenvalues --    6.88221   7.01622   7.32488   7.33170   7.41630
  Beta virt. eigenvalues --    7.44663   7.48574   7.54102   7.55746   7.58356
  Beta virt. eigenvalues --    7.71054   7.97405   7.97588   8.01978   8.09422
  Beta virt. eigenvalues --    8.20223   8.53349   8.60707   8.73214   8.84780
  Beta virt. eigenvalues --    9.12767  10.40953  10.56619  10.70531  11.24578
  Beta virt. eigenvalues --   11.46165  11.59133  12.88849  13.45619  28.55264
  Beta virt. eigenvalues --  145.87694
          Condensed to atoms (all electrons):
               1          2          3
     1  C    5.719980   0.353410   0.353410
     2  H    0.353410   0.599374  -0.166185
     3  H    0.353410  -0.166185   0.599374
          Atomic-Atomic Spin Densities.
               1          2          3
     1  C    2.265132   0.000940   0.000940
     2  H    0.000940  -0.267037   0.132592
     3  H    0.000940   0.132592  -0.267037
 Mulliken charges and spin densities:
               1          2
     1  C   -0.426801   2.267011
     2  H    0.213400  -0.133506
     3  H    0.213400  -0.133506
 Sum of Mulliken charges =  -0.00000   2.00000
 Mulliken charges and spin densities with hydrogens summed into heavy atoms:
               1          2
     1  C   -0.000000   2.000000
 Electronic spatial extent (au):  <R**2>=             24.3387
 Charge=             -0.0000 electrons
 Dipole moment (field-independent basis, Debye):
    X=             -0.0000    Y=              0.0000    Z=             -0.5882  Tot=              0.5882
 Quadrupole moment (field-independent basis, Debye-Ang):
   XX=             -8.3138   YY=             -5.9316   ZZ=             -7.7747
   XY=              0.0000   XZ=              0.0000   YZ=              0.0000
 Traceless Quadrupole moment (field-independent basis, Debye-Ang):
   XX=             -0.9737   YY=              1.4084   ZZ=             -0.4347
   XY=              0.0000   XZ=              0.0000   YZ=              0.0000
 Octapole moment (field-independent basis, Debye-Ang**2):
  XXX=              0.0000  YYY=              0.0000  ZZZ=             -0.9734  XYY=             -0.0000
  XXY=              0.0000  XXZ=             -0.3282  XZZ=              0.0000  YZZ=             -0.0000
  YYZ=             -1.0274  XYZ=             -0.0000
 Hexadecapole moment (field-independent basis, Debye-Ang**3):
 XXXX=            -10.6678 YYYY=            -13.6235 ZZZZ=            -10.9744 XXXY=             -0.0000
 XXXZ=             -0.0000 YYYX=             -0.0000 YYYZ=             -0.0000 ZZZX=             -0.0000
 ZZZY=              0.0000 XXYY=             -4.6667 XXZZ=             -3.6213 YYZZ=             -4.3093
 XXYZ=              0.0000 YYXZ=              0.0000 ZZXY=             -0.0000
 N-N= 6.161882279356D+00 E-N=-1.029582335496D+02  KE= 3.899733228909D+01
                          Isotropic Fermi Contact Couplings
        Atom                 a.u.       MegaHertz       Gauss      10(-4) cm-1
     1  C(13)              0.60281     338.83432     120.90451     113.02296
     2  H(1)               0.00152       3.40795       1.21604       1.13677
     3  H(1)               0.00152       3.40795       1.21604       1.13677
 PrsmSu:  requested number of processors reduced to:  21 ShMem   1 Linda.
 --------------------------------------------------------
       Center         ----  Spin Dipole Couplings  ----
                      3XX-RR        3YY-RR        3ZZ-RR
 --------------------------------------------------------
     1   Atom        0.695050     -1.110689      0.415639
     2   Atom       -0.062436      0.118260     -0.055823
     3   Atom       -0.062436      0.118260     -0.055823
 --------------------------------------------------------
                        XY            XZ            YZ
 --------------------------------------------------------
     1   Atom       -0.000000      0.000000      0.000000
     2   Atom        0.000000     -0.000000     -0.078943
     3   Atom        0.000000      0.000000      0.078943
 --------------------------------------------------------


 ---------------------------------------------------------------------------------
              Anisotropic Spin Dipole Couplings in Principal Axis System
 ---------------------------------------------------------------------------------

       Atom             a.u.   MegaHertz   Gauss  10(-4) cm-1        Axes

              Baa    -1.1107  -149.044   -53.183   -49.716 -0.0000  1.0000 -0.0000
     1 C(13)  Bbb     0.4156    55.775    19.902    18.604  0.0000  0.0000  1.0000
              Bcc     0.6951    93.269    33.281    31.111  1.0000 -0.0000  0.0000
 
              Baa    -0.0863   -46.040   -16.428   -15.357  0.0000  0.3601  0.9329
     2 H(1)   Bbb    -0.0624   -33.313   -11.887   -11.112  1.0000 -0.0000  0.0000
              Bcc     0.1487    79.354    28.315    26.469  0.0000  0.9329 -0.3601
 
              Baa    -0.0863   -46.040   -16.428   -15.357 -0.0000 -0.3601  0.9329
     3 H(1)   Bbb    -0.0624   -33.313   -11.887   -11.112  1.0000 -0.0000  0.0000
              Bcc     0.1487    79.354    28.315    26.469  0.0000  0.9329  0.3601
 

 ---------------------------------------------------------------------------------

 PrsmSu:  requested number of processors reduced to:  21 ShMem   1 Linda.
 No NMR shielding tensors so no spin-rotation constants.
 Leave Link  601 at Sat Apr 17 10:44:42 2021, MaxMem=   104857600 cpu:             148.0 elap:               3.3
 (Enter /s/ls4/users/knvvv/bin/g16sse/l9999.exe)

 Test job not archived.
 1\1\GINC-N156\Stability\UM062X\Gen\C1H2(3)\KNVVV\17-Apr-2021\0\\#P M06
 2X/GEN Integral=UltraFineGrid SCF=NoSymm Stable=(RExt, Opt) IOp(1/33=1
 )\\Database calculations.\\0,3\C,0,0.,0.,0.\H,0,0.,0.,1.07726039\H,0,0
 .7796192198,0.,-0.7434270778\\Version=ES64L-G16RevA.03\State=3-B1\HF=-
 39.149561\S2=2.005925\S2-1=0.\S2A=2.000009\RMSD=5.848e-09\Dipole=0.212
 7498,0.,0.0910996\Quadrupole=-0.1108672,-0.723943,0.8348102,0.,-0.4958
 579,0.\PG=C02V [C2(C1),SGV(H2)]\\@


 A DANDELION FROM A LOVER MEANS MORE THAN AN ORCHID FROM A FRIEND.
 Job cpu time:       0 days  2 hours  5 minutes  7.0 seconds.
 Elapsed time:       0 days  0 hours  2 minutes 55.5 seconds.
 File lengths (MBytes):  RWF=     51 Int=      0 D2E=      0 Chk=      3 Scr=      1
 Normal termination of Gaussian 16 at Sat Apr 17 10:44:42 2021.
