 Entering Gaussian System, Link 0=/s/ls4/users/knvvv/bin/g16sse/g16
 Input=data/database/M062X--def2-QZVPPD--20_Ne_AE18.gjf
 Output=data/database/M062X--def2-QZVPPD--20_Ne_AE18.log
 Initial command:
 /s/ls4/users/knvvv/bin/g16sse/l1.exe "/s/ls4/users/knvvv/bin/scratch/Gau-16084.inp" -scrdir="/s/ls4/users/knvvv/bin/scratch/"
 Entering Link 1 = /s/ls4/users/knvvv/bin/g16sse/l1.exe PID=     16085.
  
 Copyright (c) 1988,1990,1992,1993,1995,1998,2003,2009,2016,
            Gaussian, Inc.  All Rights Reserved.
  
 This is part of the Gaussian(R) 16 program.  It is based on
 the Gaussian(R) 09 system (copyright 2009, Gaussian, Inc.),
 the Gaussian(R) 03 system (copyright 2003, Gaussian, Inc.),
 the Gaussian(R) 98 system (copyright 1998, Gaussian, Inc.),
 the Gaussian(R) 94 system (copyright 1995, Gaussian, Inc.),
 the Gaussian 92(TM) system (copyright 1992, Gaussian, Inc.),
 the Gaussian 90(TM) system (copyright 1990, Gaussian, Inc.),
 the Gaussian 88(TM) system (copyright 1988, Gaussian, Inc.),
 the Gaussian 86(TM) system (copyright 1986, Carnegie Mellon
 University), and the Gaussian 82(TM) system (copyright 1983,
 Carnegie Mellon University). Gaussian is a federally registered
 trademark of Gaussian, Inc.
  
 This software contains proprietary and confidential information,
 including trade secrets, belonging to Gaussian, Inc.
  
 This software is provided under written license and may be
 used, copied, transmitted, or stored only in accord with that
 written license.
  
 The following legend is applicable only to US Government
 contracts under FAR:
  
                    RESTRICTED RIGHTS LEGEND
  
 Use, reproduction and disclosure by the US Government is
 subject to restrictions as set forth in subparagraphs (a)
 and (c) of the Commercial Computer Software - Restricted
 Rights clause in FAR 52.227-19.
  
 Gaussian, Inc.
 340 Quinnipiac St., Bldg. 40, Wallingford CT 06492
  
  
 ---------------------------------------------------------------
 Warning -- This program may not be used in any manner that
 competes with the business of Gaussian, Inc. or will provide
 assistance to any competitor of Gaussian, Inc.  The licensee
 of this program is prohibited from giving any competitor of
 Gaussian, Inc. access to this program.  By using this program,
 the user acknowledges that Gaussian, Inc. is engaged in the
 business of creating and licensing software in the field of
 computational chemistry and represents and warrants to the
 licensee that it is not a competitor of Gaussian, Inc. and that
 it will not use this program in any manner prohibited above.
 ---------------------------------------------------------------
  

 Cite this work as:
 Gaussian 16, Revision A.03,
 M. J. Frisch, G. W. Trucks, H. B. Schlegel, G. E. Scuseria, 
 M. A. Robb, J. R. Cheeseman, G. Scalmani, V. Barone, 
 G. A. Petersson, H. Nakatsuji, X. Li, M. Caricato, A. V. Marenich, 
 J. Bloino, B. G. Janesko, R. Gomperts, B. Mennucci, H. P. Hratchian, 
 J. V. Ortiz, A. F. Izmaylov, J. L. Sonnenberg, D. Williams-Young, 
 F. Ding, F. Lipparini, F. Egidi, J. Goings, B. Peng, A. Petrone, 
 T. Henderson, D. Ranasinghe, V. G. Zakrzewski, J. Gao, N. Rega, 
 G. Zheng, W. Liang, M. Hada, M. Ehara, K. Toyota, R. Fukuda, 
 J. Hasegawa, M. Ishida, T. Nakajima, Y. Honda, O. Kitao, H. Nakai, 
 T. Vreven, K. Throssell, J. A. Montgomery, Jr., J. E. Peralta, 
 F. Ogliaro, M. J. Bearpark, J. J. Heyd, E. N. Brothers, K. N. Kudin, 
 V. N. Staroverov, T. A. Keith, R. Kobayashi, J. Normand, 
 K. Raghavachari, A. P. Rendell, J. C. Burant, S. S. Iyengar, 
 J. Tomasi, M. Cossi, J. M. Millam, M. Klene, C. Adamo, R. Cammi, 
 J. W. Ochterski, R. L. Martin, K. Morokuma, O. Farkas, 
 J. B. Foresman, and D. J. Fox, Gaussian, Inc., Wallingford CT, 2016.
 
 ******************************************
 Gaussian 16:  ES64L-G16RevA.03 25-Dec-2016
                17-Apr-2021 
 ******************************************
 %RWF=temp8_99273,70GB
 %nprocshared=48
 Will use up to   48 processors via shared memory.
 Default route: MaxDisk=80GB
 ----------------------------------------------------------------------
 #P M062X/GEN Integral=UltraFineGrid SCF=NoSymm Stable=(RExt, Opt) IOp(
 1/33=1)
 ----------------------------------------------------------------------
 1/33=1,38=1,172=1/1;
 2/12=2,17=6,18=5,40=1/2;
 3/5=7,11=2,25=1,30=1,74=-55,75=-5/1,2,3;
 4/9=2/1;
 5/5=2,38=5/2;
 6/7=2,8=2,9=2,10=2,28=1/1;
 8/6=1,10=90,11=11/1;
 9/8=-3,42=1,46=1/14;
 5/5=2,8=3,17=40,38=5/8(-2);
 6/7=2,8=2,9=2,10=2,28=1/1;
 99/5=1,9=1/99;
 Leave Link    1 at Sat Apr 17 20:14:02 2021, MaxMem=           0 cpu:              11.3 elap:               0.3
 (Enter /s/ls4/users/knvvv/bin/g16sse/l101.exe)
 ONIOM data not found on unit 2.
 ----------------------
 Database calculations.
 ----------------------
 TstMul:  ICh=     0
 TstMul:  Mul=     1
 TstMul:  ICh=     0
 TstMul:  Mul=     1
 Symbolic Z-matrix:
 Charge =  0 Multiplicity = 1
 Ne                    0.        0.        0. 
 
 RdStrC is calling ZToCFu for IStruc=1 NZ=     1.
 PrtBox:  NBox=     1 Levels=  0 BoxLen=    8.00 SMaxX=        0.00
          Shift=            0.000000            0.000000            0.000000
 Box      1 Number                   0 centers from      1 to      1:
 After GenITR:
 ITRead=  0
 MicOpt= -1
 ITRead=  0
 MicOpt= -1
 NAtoms=      1 NQM=        1 NQMF=       0 NMMI=      0 NMMIF=      0
                NMic=       0 NMicF=      0.
                    Isotopes and Nuclear Properties:
 (Nuclear quadrupole moments (NQMom) in fm**2, nuclear magnetic moments (NMagM)
  in nuclear magnetons)

  Atom         1
 IAtWgt=          20
 AtmWgt=  19.9924391
 NucSpn=           0
 AtZEff=  -0.0000000
 NQMom=    0.0000000
 NMagM=    0.0000000
 AtZNuc=  10.0000000
 No MM parameters found.
 Leave Link  101 at Sat Apr 17 20:14:02 2021, MaxMem=   104857600 cpu:               8.7 elap:               0.2
 (Enter /s/ls4/users/knvvv/bin/g16sse/l202.exe)
                          Input orientation:                          
 ---------------------------------------------------------------------
 Center     Atomic      Atomic             Coordinates (Angstroms)
 Number     Number       Type             X           Y           Z
 ---------------------------------------------------------------------
      1         10           0        0.000000    0.000000    0.000000
 ---------------------------------------------------------------------
 Stoichiometry    Ne
 Framework group  OH[O(Ne)]
 Deg. of freedom     0
 Full point group                 OH      NOp  48
 Largest Abelian subgroup         D2H     NOp   8
 Largest concise Abelian subgroup C1      NOp   1
                         Standard orientation:                         
 ---------------------------------------------------------------------
 Center     Atomic      Atomic             Coordinates (Angstroms)
 Number     Number       Type             X           Y           Z
 ---------------------------------------------------------------------
      1         10           0        0.000000    0.000000    0.000000
 ---------------------------------------------------------------------
 Leave Link  202 at Sat Apr 17 20:14:04 2021, MaxMem=   104857600 cpu:              53.0 elap:               1.2
 (Enter /s/ls4/users/knvvv/bin/g16sse/l301.exe)
 General basis read from cards:  (5D, 7F)
 Centers:       1
 S 8 1.00
     Exponent=  1.6067627955D+05 Coefficients=  4.7387482743D-05
     Exponent=  2.3953195039D+04 Coefficients=  3.7070120897D-04
     Exponent=  5.4375063711D+03 Coefficients=  1.9450784713D-03
     Exponent=  1.5442741024D+03 Coefficients=  8.0573291994D-03
     Exponent=  5.0788814269D+02 Coefficients=  2.7992880781D-02
     Exponent=  1.8494847750D+02 Coefficients=  8.2735120175D-02
     Exponent=  7.2522952039D+01 Coefficients=  1.9854169012D-01
     Exponent=  3.0088713575D+01 Coefficients=  3.4860632233D-01
 S 2 1.00
     Exponent=  1.2068434940D+02 Coefficients=  1.0400597014D-01
     Exponent=  3.6074294857D+01 Coefficients=  9.1999988986D-01
 S 1 1.00
     Exponent=  1.3052091210D+01 Coefficients=  1.0000000000D+00
 S 1 1.00
     Exponent=  5.7974783353D+00 Coefficients=  1.0000000000D+00
 S 1 1.00
     Exponent=  2.0478626895D+00 Coefficients=  1.0000000000D+00
 S 1 1.00
     Exponent=  8.0214571994D-01 Coefficients=  1.0000000000D+00
 S 1 1.00
     Exponent=  3.0548672205D-01 Coefficients=  1.0000000000D+00
 S 1 1.00
     Exponent=  1.0621243030D-01 Coefficients=  1.0000000000D+00
 P 6 1.00
     Exponent=  4.9843397466D+02 Coefficients=  4.3118261050D-04
     Exponent=  1.1814109217D+02 Coefficients=  3.6206397703D-03
     Exponent=  3.8032529735D+01 Coefficients=  1.8245344081D-02
     Exponent=  1.4183731950D+01 Coefficients=  6.5133035572D-02
     Exponent=  5.7864190721D+00 Coefficients=  1.6708915089D-01
     Exponent=  2.4599622160D+00 Coefficients=  2.9268019613D-01
 P 1 1.00
     Exponent=  1.0421999498D+00 Coefficients=  1.0000000000D+00
 P 1 1.00
     Exponent=  4.2987748916D-01 Coefficients=  1.0000000000D+00
 P 1 1.00
     Exponent=  1.6889708453D-01 Coefficients=  1.0000000000D+00
 P 1 1.00
     Exponent=  4.7169461232D-02 Coefficients=  1.0000000000D+00
 D 1 1.00
     Exponent=  6.4710000000D+00 Coefficients=  1.0000000000D+00
 D 1 1.00
     Exponent=  2.2130000000D+00 Coefficients=  1.0000000000D+00
 D 1 1.00
     Exponent=  7.4700000000D-01 Coefficients=  1.0000000000D+00
 D 1 1.00
     Exponent=  1.9790459442D-01 Coefficients=  1.0000000000D+00
 F 1 1.00
     Exponent=  4.6570000000D+00 Coefficients=  1.0000000000D+00
 F 1 1.00
     Exponent=  1.5240000000D+00 Coefficients=  1.0000000000D+00
 G 1 1.00
     Exponent=  2.9830000000D+00 Coefficients=  1.0000000000D+00
 ****
 Ernie: Thresh=  0.10000D-02 Tol=  0.10000D-05 Strict=F.
 There are    26 symmetry adapted cartesian basis functions of AG  symmetry.
 There are     7 symmetry adapted cartesian basis functions of B1G symmetry.
 There are     7 symmetry adapted cartesian basis functions of B2G symmetry.
 There are     7 symmetry adapted cartesian basis functions of B3G symmetry.
 There are     2 symmetry adapted cartesian basis functions of AU  symmetry.
 There are    11 symmetry adapted cartesian basis functions of B1U symmetry.
 There are    11 symmetry adapted cartesian basis functions of B2U symmetry.
 There are    11 symmetry adapted cartesian basis functions of B3U symmetry.
 There are    19 symmetry adapted basis functions of AG  symmetry.
 There are     6 symmetry adapted basis functions of B1G symmetry.
 There are     6 symmetry adapted basis functions of B2G symmetry.
 There are     6 symmetry adapted basis functions of B3G symmetry.
 There are     2 symmetry adapted basis functions of AU  symmetry.
 There are     9 symmetry adapted basis functions of B1U symmetry.
 There are     9 symmetry adapted basis functions of B2U symmetry.
 There are     9 symmetry adapted basis functions of B3U symmetry.
    66 basis functions,   105 primitive gaussians,    82 cartesian basis functions
     5 alpha electrons        5 beta electrons
       nuclear repulsion energy         0.0000000000 Hartrees.
 IExCor= 4336 DFT=T Ex+Corr=M062X ExCW=0 ScaHFX=  0.540000
 ScaDFX=  1.000000  1.000000  1.000000  1.000000 ScalE2=  1.000000  1.000000
 IRadAn=      5 IRanWt=     -1 IRanGd=            0 ICorTp=0 IEmpDi=  4
 NAtoms=    1 NActive=    1 NUniq=    1 SFac= 1.00D+00 NAtFMM=   60 NAOKFM=F Big=F
 Integral buffers will be    131072 words long.
 Raffenetti 2 integral format.
 Two-electron integral symmetry is turned on.
 Leave Link  301 at Sat Apr 17 20:14:04 2021, MaxMem=   104857600 cpu:              10.4 elap:               0.3
 (Enter /s/ls4/users/knvvv/bin/g16sse/l302.exe)
 NPDir=0 NMtPBC=     1 NCelOv=     1 NCel=       1 NClECP=     1 NCelD=      1
         NCelK=      1 NCelE2=     1 NClLst=     1 CellRange=     0.0.
 One-electron integrals computed using PRISM.
 One-electron integral symmetry used in STVInt
 PrsmSu:  requested number of processors reduced to:   4 ShMem   1 Linda.
 PrsmSu:  requested number of processors reduced to:  21 ShMem   1 Linda.
 NBasis=    66 RedAO= T EigKep=  4.85D-03  NBF=    19     6     6     6     2     9     9     9
 NBsUse=    66 1.00D-06 EigRej= -1.00D+00 NBFU=    19     6     6     6     2     9     9     9
 Precomputing XC quadrature grid using
 IXCGrd= 4 IRadAn=           5 IRanWt=          -1 IRanGd=           0 AccXCQ= 0.00D+00.
 Generated NRdTot=       0 NPtTot=           0 NUsed=           0 NTot=          32
 NSgBfM=    82    82    82    82    82 MxSgAt=     1 MxSgA2=     1.
 Leave Link  302 at Sat Apr 17 20:14:17 2021, MaxMem=   104857600 cpu:             630.1 elap:              13.5
 (Enter /s/ls4/users/knvvv/bin/g16sse/l303.exe)
 DipDrv:  MaxL=1.
 Leave Link  303 at Sat Apr 17 20:14:18 2021, MaxMem=   104857600 cpu:              26.5 elap:               0.8
 (Enter /s/ls4/users/knvvv/bin/g16sse/l401.exe)
 SCF N**3 symmetry information disabled.
 ExpMin= 4.72D-02 ExpMax= 1.61D+05 ExpMxC= 1.54D+03 IAcc=3 IRadAn=         5 AccDes= 0.00D+00
 Harris functional with IExCor= 1009 and IRadAn=       5 diagonalized for initial guess.
 HarFok:  IExCor= 1009 AccDes= 0.00D+00 IRadAn=         5 IDoV= 1 UseB2=F ITyADJ=14
 ICtDFT=  3500011 ScaDFX=  1.000000  1.000000  1.000000  1.000000
 FoFCou: FMM=F IPFlag=           0 FMFlag=      100000 FMFlg1=           0
         NFxFlg=           0 DoJE=T BraDBF=F KetDBF=T FulRan=T
         wScrn=  0.000000 ICntrl=       500 IOpCl=  0 I1Cent=   200000004 NGrid=           0
         NMat0=    1 NMatS0=      1 NMatT0=    0 NMatD0=    1 NMtDS0=    0 NMtDT0=    0
 Petite list used in FoFCou.
 CoulSu:  requested number of processors reduced to:  21 ShMem   1 Linda.
 CoulSu:  requested number of processors reduced to:  21 ShMem   1 Linda.
 CoulSu:  requested number of processors reduced to:  21 ShMem   1 Linda.
 CoulSu:  requested number of processors reduced to:  21 ShMem   1 Linda.
 Harris En= -128.855215908997    
 JPrj=0 DoOrth=F DoCkMO=F.
 Initial guess orbital symmetries:
       Occupied  (A1G) (A1G) (T1U) (T1U) (T1U)
       Virtual   (T1U) (T1U) (T1U) (A1G) (T1U) (T1U) (T1U) (T2G)
                 (T2G) (T2G) (EG) (EG) (A1G) (T1U) (T1U) (T1U)
                 (T2G) (T2G) (T2G) (EG) (EG) (A1G) (T2U) (T2U)
                 (T2U) (A2U) (T1U) (T1U) (T1U) (T1U) (T1U) (T1U)
                 (T2G) (T2G) (T2G) (EG) (EG) (T1G) (T1G) (T1G)
                 (T2G) (T2G) (T2G) (EG) (EG) (A1G) (A1G) (T2U)
                 (T2U) (T2U) (A2U) (T1U) (T1U) (T1U) (T2G) (T2G)
                 (T2G) (EG) (EG) (A1G) (A1G)
 The electronic state of the initial guess is 1-A1G.
 Leave Link  401 at Sat Apr 17 20:14:31 2021, MaxMem=   104857600 cpu:             573.5 elap:              12.6
 (Enter /s/ls4/users/knvvv/bin/g16sse/l502.exe)
 Keep R1 ints in memory in symmetry-blocked form, NReq=56620148.
 FoFCou: FMM=F IPFlag=           0 FMFlag=           0 FMFlg1=           0
         NFxFlg=           0 DoJE=F BraDBF=F KetDBF=F FulRan=T
         wScrn=  0.000000 ICntrl=       600 IOpCl=  0 I1Cent=           0 NGrid=           0
         NMat0=    1 NMatS0=   2211 NMatT0=    0 NMatD0=    1 NMtDS0=    0 NMtDT0=    0
 Petite list used in FoFCou.
 CoulSu:  requested number of processors reduced to:  22 ShMem   1 Linda.
 Closed shell SCF:
 Using DIIS extrapolation, IDIIS=  1040.
 NGot=   104857600 LenX=   104508676 LenY=   104501511
 Requested convergence on RMS density matrix=1.00D-08 within 128 cycles.
 Requested convergence on MAX density matrix=1.00D-06.
 Requested convergence on             energy=1.00D-06.
 No special actions if energy rises.

 Cycle   1  Pass 1  IDiag  1:
 E= -128.935332420937    
 DIIS: error= 4.29D-02 at cycle   1 NSaved=   1.
 NSaved= 1 IEnMin= 1 EnMin= -128.935332420937     IErMin= 1 ErrMin= 4.29D-02
 ErrMax= 4.29D-02  0.00D+00 EMaxC= 1.00D-01 BMatC= 3.17D-02 BMatP= 3.17D-02
 IDIUse=3 WtCom= 5.71D-01 WtEn= 4.29D-01
 Coeff-Com:  0.100D+01
 Coeff-En:   0.100D+01
 Coeff:      0.100D+01
 Gap=     0.796 Goal=   None    Shift=    0.000
 GapD=    0.796 DampG=2.000 DampE=0.500 DampFc=1.0000 IDamp=-1.
 RMSDP=9.89D-04 MaxDP=2.76D-02              OVMax= 2.77D-02

 Cycle   2  Pass 1  IDiag  1:
 E= -128.939628591685     Delta-E=       -0.004296170747 Rises=F Damp=F
 DIIS: error= 1.02D-02 at cycle   2 NSaved=   2.
 NSaved= 2 IEnMin= 2 EnMin= -128.939628591685     IErMin= 2 ErrMin= 1.02D-02
 ErrMax= 1.02D-02  0.00D+00 EMaxC= 1.00D-01 BMatC= 3.31D-03 BMatP= 3.17D-02
 IDIUse=3 WtCom= 8.98D-01 WtEn= 1.02D-01
 Coeff-Com:  0.142D+00 0.858D+00
 Coeff-En:   0.000D+00 0.100D+01
 Coeff:      0.127D+00 0.873D+00
 Gap=     0.743 Goal=   None    Shift=    0.000
 RMSDP=3.49D-04 MaxDP=7.71D-03 DE=-4.30D-03 OVMax= 1.23D-02

 Cycle   3  Pass 1  IDiag  1:
 E= -128.940389802192     Delta-E=       -0.000761210507 Rises=F Damp=F
 DIIS: error= 7.52D-03 at cycle   3 NSaved=   3.
 NSaved= 3 IEnMin= 3 EnMin= -128.940389802192     IErMin= 3 ErrMin= 7.52D-03
 ErrMax= 7.52D-03  0.00D+00 EMaxC= 1.00D-01 BMatC= 1.40D-03 BMatP= 3.31D-03
 IDIUse=3 WtCom= 9.25D-01 WtEn= 7.52D-02
 Coeff-Com: -0.100D-01 0.392D+00 0.618D+00
 Coeff-En:   0.000D+00 0.261D+00 0.739D+00
 Coeff:     -0.925D-02 0.382D+00 0.627D+00
 Gap=     0.759 Goal=   None    Shift=    0.000
 DSYEVD-2 returned Info=         100 IAlg= 4 N=    66 NDim=    66 NE2=     1583355 trying  DSYEV.
 RMSDP=1.36D-04 MaxDP=3.04D-03 DE=-7.61D-04 OVMax= 5.02D-03

 Cycle   4  Pass 1  IDiag  1:
 E= -128.940908973919     Delta-E=       -0.000519171727 Rises=F Damp=F
 DIIS: error= 1.01D-04 at cycle   4 NSaved=   4.
 NSaved= 4 IEnMin= 4 EnMin= -128.940908973919     IErMin= 4 ErrMin= 1.01D-04
 ErrMax= 1.01D-04  0.00D+00 EMaxC= 1.00D-01 BMatC= 2.97D-07 BMatP= 1.40D-03
 IDIUse=3 WtCom= 9.99D-01 WtEn= 1.01D-03
 Coeff-Com: -0.342D-04-0.124D-01-0.489D-02 0.102D+01
 Coeff-En:   0.000D+00 0.000D+00 0.000D+00 0.100D+01
 Coeff:     -0.342D-04-0.124D-01-0.488D-02 0.102D+01
 Gap=     0.759 Goal=   None    Shift=    0.000
 RMSDP=3.19D-06 MaxDP=5.12D-05 DE=-5.19D-04 OVMax= 6.22D-05

 Cycle   5  Pass 1  IDiag  1:
 E= -128.940909085270     Delta-E=       -0.000000111351 Rises=F Damp=F
 DIIS: error= 6.90D-06 at cycle   5 NSaved=   5.
 NSaved= 5 IEnMin= 5 EnMin= -128.940909085270     IErMin= 5 ErrMin= 6.90D-06
 ErrMax= 6.90D-06  0.00D+00 EMaxC= 1.00D-01 BMatC= 1.33D-09 BMatP= 2.97D-07
 IDIUse=1 WtCom= 1.00D+00 WtEn= 0.00D+00
 Coeff-Com: -0.820D-06-0.120D-03 0.359D-03-0.301D-01 0.103D+01
 Coeff:     -0.820D-06-0.120D-03 0.359D-03-0.301D-01 0.103D+01
 Gap=     0.759 Goal=   None    Shift=    0.000
 RMSDP=2.81D-07 MaxDP=5.58D-06 DE=-1.11D-07 OVMax= 4.92D-06

 Cycle   6  Pass 1  IDiag  1:
 E= -128.940909085849     Delta-E=       -0.000000000579 Rises=F Damp=F
 DIIS: error= 1.50D-07 at cycle   6 NSaved=   6.
 NSaved= 6 IEnMin= 6 EnMin= -128.940909085849     IErMin= 6 ErrMin= 1.50D-07
 ErrMax= 1.50D-07  0.00D+00 EMaxC= 1.00D-01 BMatC= 6.98D-13 BMatP= 1.33D-09
 IDIUse=1 WtCom= 1.00D+00 WtEn= 0.00D+00
 Coeff-Com:  0.119D-05 0.402D-04-0.226D-04-0.273D-02-0.398D-01 0.104D+01
 Coeff:      0.119D-05 0.402D-04-0.226D-04-0.273D-02-0.398D-01 0.104D+01
 Gap=     0.759 Goal=   None    Shift=    0.000
 RMSDP=1.64D-08 MaxDP=3.53D-07 DE=-5.79D-10 OVMax= 3.70D-07

 Cycle   7  Pass 1  IDiag  1:
 E= -128.940909085850     Delta-E=       -0.000000000001 Rises=F Damp=F
 DIIS: error= 3.10D-08 at cycle   7 NSaved=   7.
 NSaved= 7 IEnMin= 7 EnMin= -128.940909085850     IErMin= 7 ErrMin= 3.10D-08
 ErrMax= 3.10D-08  0.00D+00 EMaxC= 1.00D-01 BMatC= 1.08D-14 BMatP= 6.98D-13
 IDIUse=1 WtCom= 1.00D+00 WtEn= 0.00D+00
 Coeff-Com: -0.163D-06-0.348D-05 0.507D-05 0.382D-03 0.143D-02-0.108D+00
 Coeff-Com:  0.111D+01
 Coeff:     -0.163D-06-0.348D-05 0.507D-05 0.382D-03 0.143D-02-0.108D+00
 Coeff:      0.111D+01
 Gap=     0.759 Goal=   None    Shift=    0.000
 RMSDP=7.51D-10 MaxDP=1.64D-08 DE=-6.54D-13 OVMax= 2.21D-08

 SCF Done:  E(RM062X) =  -128.940909086     A.U. after    7 cycles
            NFock=  7  Conv=0.75D-09     -V/T= 2.0024
 KE= 1.286337072031D+02 PE=-3.110612236346D+02 EE= 5.348660734564D+01
 Leave Link  502 at Sat Apr 17 20:16:18 2021, MaxMem=   104857600 cpu:            4981.7 elap:             106.6
 (Enter /s/ls4/users/knvvv/bin/g16sse/l601.exe)
 Copying SCF densities to generalized density rwf, IOpCl= 0 IROHF=0.

 **********************************************************************

            Population analysis using the SCF density.

 **********************************************************************

 Orbital symmetries:
       Occupied  (A1G) (A1G) (T1U) (T1U) (T1U)
       Virtual   (T1U) (T1U) (T1U) (A1G) (T1U) (T1U) (T1U) (T2G)
                 (T2G) (T2G) (EG) (EG) (A1G) (T1U) (T1U) (T1U)
                 (T2G) (T2G) (T2G) (EG) (EG) (A1G) (T2U) (T2U)
                 (T2U) (A2U) (T1U) (T1U) (T1U) (T1U) (T1U) (T1U)
                 (T2G) (T2G) (T2G) (EG) (EG) (T2G) (T2G) (T2G)
                 (T1G) (T1G) (T1G) (EG) (EG) (A1G) (A1G) (?A) (?A)
                 (?A) (?A) (T1U) (T1U) (T1U) (T2G) (T2G) (T2G)
                 (EG) (EG) (A1G) (A1G)
 The electronic state is 1-A1G.
 Alpha  occ. eigenvalues --  -31.58999  -1.62324  -0.68646  -0.68646  -0.68646
 Alpha virt. eigenvalues --    0.07286   0.07286   0.07286   0.13042   0.48895
 Alpha virt. eigenvalues --    0.48895   0.48895   0.54118   0.54118   0.54118
 Alpha virt. eigenvalues --    0.54118   0.54118   1.08475   1.78239   1.78239
 Alpha virt. eigenvalues --    1.78239   2.12039   2.12039   2.12039   2.12039
 Alpha virt. eigenvalues --    2.12039   4.61615   5.50389   5.50389   5.50389
 Alpha virt. eigenvalues --    5.50389   5.50389   5.50389   5.50389   5.96897
 Alpha virt. eigenvalues --    5.96897   5.96897   6.61928   6.61928   6.61928
 Alpha virt. eigenvalues --    6.61928   6.61928  14.21197  14.21197  14.21197
 Alpha virt. eigenvalues --   14.21197  14.21197  14.21197  14.21197  14.21197
 Alpha virt. eigenvalues --   14.21197  17.71476  18.88210  18.88210  18.88210
 Alpha virt. eigenvalues --   18.88210  18.88210  18.88210  18.88210  20.24464
 Alpha virt. eigenvalues --   20.24464  20.24464  20.24464  20.24464  64.46090
 Alpha virt. eigenvalues --  336.65910
          Condensed to atoms (all electrons):
               1
     1  Ne  10.000000
 Mulliken charges:
               1
     1  Ne   0.000000
 Sum of Mulliken charges =   0.00000
 Mulliken charges with hydrogens summed into heavy atoms:
               1
     1  Ne   0.000000
 Electronic spatial extent (au):  <R**2>=              9.6055
 Charge=              0.0000 electrons
 Dipole moment (field-independent basis, Debye):
    X=              0.0000    Y=             -0.0000    Z=              0.0000  Tot=              0.0000
 Quadrupole moment (field-independent basis, Debye-Ang):
   XX=             -4.3066   YY=             -4.3066   ZZ=             -4.3066
   XY=             -0.0000   XZ=             -0.0000   YZ=             -0.0000
 Traceless Quadrupole moment (field-independent basis, Debye-Ang):
   XX=              0.0000   YY=              0.0000   ZZ=              0.0000
   XY=             -0.0000   XZ=             -0.0000   YZ=             -0.0000
 Octapole moment (field-independent basis, Debye-Ang**2):
  XXX=              0.0000  YYY=              0.0000  ZZZ=              0.0000  XYY=              0.0000
  XXY=              0.0000  XXZ=              0.0000  XZZ=              0.0000  YZZ=              0.0000
  YYZ=              0.0000  XYZ=             -0.0000
 Hexadecapole moment (field-independent basis, Debye-Ang**3):
 XXXX=             -2.2321 YYYY=             -2.2321 ZZZZ=             -2.2321 XXXY=              0.0000
 XXXZ=             -0.0000 YYYX=             -0.0000 YYYZ=              0.0000 ZZZX=              0.0000
 ZZZY=             -0.0000 XXYY=             -0.7440 XXZZ=             -0.7440 YYZZ=             -0.7440
 XXYZ=              0.0000 YYXZ=              0.0000 ZZXY=             -0.0000
 N-N= 0.000000000000D+00 E-N=-3.110612231615D+02  KE= 1.286337072031D+02
 PrsmSu:  requested number of processors reduced to:  21 ShMem   1 Linda.
 No NMR shielding tensors so no spin-rotation constants.
 Leave Link  601 at Sat Apr 17 20:16:23 2021, MaxMem=   104857600 cpu:             252.5 elap:               5.5
 (Enter /s/ls4/users/knvvv/bin/g16sse/l801.exe)
 DoSCS=F DFT=T ScalE2(SS,OS)=  1.000000  1.000000
 Range of M.O.s used for correlation:     1    66
 NBasis=    66 NAE=     5 NBE=     5 NFC=     0 NFV=     0
 NROrb=     66 NOA=     5 NOB=     5 NVA=    61 NVB=    61
 Leave Link  801 at Sat Apr 17 20:16:23 2021, MaxMem=   104857600 cpu:               5.7 elap:               0.2
 (Enter /s/ls4/users/knvvv/bin/g16sse/l914.exe)
 RHF ground state
 Doing stability rather than CIS.
 Two-electron integrals replicated using symmetry.
 MDV=   104857600 DFT=T DoStab=T Mixed=T DoRPA=F DoScal=F NonHer=F
 Making orbital integer symmetry assigments:
 Orbital symmetries:
       Occupied  (A1G) (A1G) (T1U) (T1U) (T1U)
       Virtual   (T1U) (T1U) (T1U) (A1G) (T1U) (T1U) (T1U) (T2G)
                 (T2G) (T2G) (EG) (EG) (A1G) (T1U) (T1U) (T1U)
                 (T2G) (T2G) (T2G) (EG) (EG) (A1G) (T2U) (T2U)
                 (T2U) (A2U) (T1U) (T1U) (T1U) (T1U) (T1U) (T1U)
                 (T2G) (T2G) (T2G) (EG) (EG) (T2G) (T2G) (T2G)
                 (T1G) (T1G) (T1G) (EG) (EG) (A1G) (A1G) (?A) (?A)
                 (?A) (?A) (T1U) (T1U) (T1U) (T2G) (T2G) (T2G)
                 (EG) (EG) (A1G) (A1G)
    48 initial guesses have been made.
 Convergence on wavefunction:    0.001000000000000
 Davidson Disk Diagonalization:  ConvIn= 1.00D-03 SkipCon=T Conv= 1.00D-03.
 Max sub-space:  1220 roots to seek:    48 dimension of matrix:          610
 Iteration     1 Dimension    48 NMult     0 NNew     48
 Estimated number of processors is:   20
 CISAX will form     1 AO SS matrices at one time.
 NMat=     1 NSing=     1 JSym2X= 2.
 FoFJK:  IHMeth= 1 ICntrl=       0 DoSepK=F KAlg= 0 I1Cent=           0 FoldK=F
 IRaf= 990000000 NMat=       1 IRICut=       1 DoRegI=T DoRafI=F ISym2E= 2 IDoP0=0 IntGTp=1.
 FoFCou: FMM=F IPFlag=           0 FMFlag=      100000 FMFlg1=           0
         NFxFlg=           0 DoJE=F BraDBF=F KetDBF=F FulRan=T
         wScrn=  0.000000 ICntrl=         0 IOpCl=  0 I1Cent=           0 NGrid=           0
         NMat0=    1 NMatS0=      1 NMatT0=    0 NMatD0=    1 NMtDS0=    0 NMtDT0=    0
 Integrals replicated using symmetry in FoFCou.
 CoulSu:  requested number of processors reduced to:  21 ShMem   1 Linda.
 NMat=     1 NSing=     1 JSym2X= 2.
 CoulSu:  requested number of processors reduced to:  21 ShMem   1 Linda.
 NMat=     1 NSing=     1 JSym2X= 2.
 CoulSu:  requested number of processors reduced to:  21 ShMem   1 Linda.
 NMat=     1 NSing=     1 JSym2X= 2.
 CoulSu:  requested number of processors reduced to:  21 ShMem   1 Linda.
 NMat=     1 NSing=     1 JSym2X= 2.
 CoulSu:  requested number of processors reduced to:  21 ShMem   1 Linda.
 NMat=     1 NSing=     1 JSym2X= 2.
 CoulSu:  requested number of processors reduced to:  21 ShMem   1 Linda.
 NMat=     1 NSing=     1 JSym2X= 2.
 CoulSu:  requested number of processors reduced to:  21 ShMem   1 Linda.
 NMat=     1 NSing=     1 JSym2X= 2.
 CoulSu:  requested number of processors reduced to:  21 ShMem   1 Linda.
 NMat=     1 NSing=     1 JSym2X= 2.
 CoulSu:  requested number of processors reduced to:  21 ShMem   1 Linda.
 NMat=     1 NSing=     1 JSym2X= 2.
 CoulSu:  requested number of processors reduced to:  21 ShMem   1 Linda.
 NMat=     1 NSing=     1 JSym2X= 2.
 CoulSu:  requested number of processors reduced to:  21 ShMem   1 Linda.
 NMat=     1 NSing=     1 JSym2X= 2.
 CoulSu:  requested number of processors reduced to:  21 ShMem   1 Linda.
 NMat=     1 NSing=     1 JSym2X= 2.
 CoulSu:  requested number of processors reduced to:  21 ShMem   1 Linda.
 NMat=     1 NSing=     1 JSym2X= 2.
 CoulSu:  requested number of processors reduced to:  21 ShMem   1 Linda.
 NMat=     1 NSing=     1 JSym2X= 2.
 CoulSu:  requested number of processors reduced to:  21 ShMem   1 Linda.
 NMat=     1 NSing=     1 JSym2X= 2.
 CoulSu:  requested number of processors reduced to:  21 ShMem   1 Linda.
 NMat=     1 NSing=     1 JSym2X= 2.
 CoulSu:  requested number of processors reduced to:  21 ShMem   1 Linda.
 NMat=     1 NSing=     1 JSym2X= 2.
 CoulSu:  requested number of processors reduced to:  21 ShMem   1 Linda.
 NMat=     1 NSing=     1 JSym2X= 2.
 CoulSu:  requested number of processors reduced to:  21 ShMem   1 Linda.
 NMat=     1 NSing=     1 JSym2X= 2.
 CoulSu:  requested number of processors reduced to:  21 ShMem   1 Linda.
 NMat=     1 NSing=     1 JSym2X= 2.
 CoulSu:  requested number of processors reduced to:  21 ShMem   1 Linda.
 NMat=     1 NSing=     1 JSym2X= 2.
 CoulSu:  requested number of processors reduced to:  21 ShMem   1 Linda.
 NMat=     1 NSing=     1 JSym2X= 2.
 CoulSu:  requested number of processors reduced to:  21 ShMem   1 Linda.
 NMat=     1 NSing=     1 JSym2X= 2.
 CoulSu:  requested number of processors reduced to:  21 ShMem   1 Linda.
 NMat=     1 NSing=     0 JSym2X= 2.
 CoulSu:  requested number of processors reduced to:  21 ShMem   1 Linda.
 NMat=     1 NSing=     0 JSym2X= 2.
 CoulSu:  requested number of processors reduced to:  21 ShMem   1 Linda.
 NMat=     1 NSing=     0 JSym2X= 2.
 CoulSu:  requested number of processors reduced to:  21 ShMem   1 Linda.
 NMat=     1 NSing=     0 JSym2X= 2.
 CoulSu:  requested number of processors reduced to:  21 ShMem   1 Linda.
 NMat=     1 NSing=     0 JSym2X= 2.
 CoulSu:  requested number of processors reduced to:  21 ShMem   1 Linda.
 NMat=     1 NSing=     0 JSym2X= 2.
 CoulSu:  requested number of processors reduced to:  21 ShMem   1 Linda.
 NMat=     1 NSing=     0 JSym2X= 2.
 CoulSu:  requested number of processors reduced to:  21 ShMem   1 Linda.
 NMat=     1 NSing=     0 JSym2X= 2.
 CoulSu:  requested number of processors reduced to:  21 ShMem   1 Linda.
 NMat=     1 NSing=     0 JSym2X= 2.
 CoulSu:  requested number of processors reduced to:  21 ShMem   1 Linda.
 NMat=     1 NSing=     0 JSym2X= 2.
 CoulSu:  requested number of processors reduced to:  21 ShMem   1 Linda.
 NMat=     1 NSing=     0 JSym2X= 2.
 CoulSu:  requested number of processors reduced to:  21 ShMem   1 Linda.
 NMat=     1 NSing=     0 JSym2X= 2.
 CoulSu:  requested number of processors reduced to:  21 ShMem   1 Linda.
 NMat=     1 NSing=     0 JSym2X= 2.
 CoulSu:  requested number of processors reduced to:  21 ShMem   1 Linda.
 NMat=     1 NSing=     0 JSym2X= 2.
 CoulSu:  requested number of processors reduced to:  21 ShMem   1 Linda.
 NMat=     1 NSing=     0 JSym2X= 2.
 CoulSu:  requested number of processors reduced to:  21 ShMem   1 Linda.
 NMat=     1 NSing=     0 JSym2X= 2.
 CoulSu:  requested number of processors reduced to:  21 ShMem   1 Linda.
 NMat=     1 NSing=     0 JSym2X= 2.
 CoulSu:  requested number of processors reduced to:  21 ShMem   1 Linda.
 NMat=     1 NSing=     0 JSym2X= 2.
 CoulSu:  requested number of processors reduced to:  21 ShMem   1 Linda.
 NMat=     1 NSing=     0 JSym2X= 2.
 CoulSu:  requested number of processors reduced to:  21 ShMem   1 Linda.
 NMat=     1 NSing=     0 JSym2X= 2.
 CoulSu:  requested number of processors reduced to:  21 ShMem   1 Linda.
 NMat=     1 NSing=     0 JSym2X= 2.
 CoulSu:  requested number of processors reduced to:  21 ShMem   1 Linda.
 NMat=     1 NSing=     0 JSym2X= 2.
 CoulSu:  requested number of processors reduced to:  21 ShMem   1 Linda.
 NMat=     1 NSing=     0 JSym2X= 2.
 CoulSu:  requested number of processors reduced to:  21 ShMem   1 Linda.
 NMat=     1 NSing=     0 JSym2X= 2.
 CoulSu:  requested number of processors reduced to:  21 ShMem   1 Linda.
 New state      1 was old state     12
 Excitation Energies [eV] at current iteration:
 Root      1 :    17.245954992169950
 Root      2 :    17.341610393930150
 Root      3 :    17.341610393971400
 Root      4 :    17.341610394021280
 Root      5 :    17.341610394059940
 Root      6 :    17.341610394080760
 Root      7 :    17.593534282684980
 Root      8 :    17.593534282702430
 Root      9 :    17.593534282706140
 Root     10 :    17.593534282728150
 Root     11 :    17.593534282735620
 Root     12 :    17.613935163280210
 Root     13 :    17.613935163280710
 Root     14 :    17.613935163280750
 Root     15 :    17.613935163281040
 Root     16 :    17.613935163282730
 Root     17 :    17.613935163283470
 Root     18 :    17.759273915943080
 Root     19 :    17.774304932110560
 Root     20 :    17.781846719175960
 Root     21 :    17.887400502545900
 Root     22 :    17.887989592162430
 Root     23 :    17.888297386675110
 Root     24 :    19.035256834555710
 Root     25 :    26.162453014565490
 Root     26 :    26.162453014591130
 Root     27 :    26.162453014621630
 Root     28 :    26.162453014661250
 Root     29 :    26.162453014683310
 Root     30 :    26.309271119524500
 Root     31 :    26.309271119530310
 Root     32 :    26.309271119537850
 Root     33 :    26.309271119578340
 Root     34 :    26.309271119592510
 Root     35 :    27.067688328357690
 Root     36 :    27.223986519092360
 Root     37 :    27.223986519092740
 Root     38 :    27.223986519092890
 Root     39 :    27.223986519093070
 Root     40 :    27.223986519093700
 Root     41 :    27.223986519093940
 Root     42 :    28.277939156282420
 Root     43 :    28.425536442459250
 Root     44 :    28.494019385806660
 Root     45 :    28.570970869714620
 Root     46 :    28.909971391458110
 Root     47 :    29.031568861191270
 Root     48 :    39.921043728759710
 Iteration     2 Dimension    96 NMult    48 NNew     48
 Estimated number of processors is:   20
 CISAX will form     1 AO SS matrices at one time.
 NMat=     1 NSing=     1 JSym2X= 2.
 CoulSu:  requested number of processors reduced to:  21 ShMem   1 Linda.
 NMat=     1 NSing=     1 JSym2X= 2.
 CoulSu:  requested number of processors reduced to:  21 ShMem   1 Linda.
 NMat=     1 NSing=     1 JSym2X= 2.
 CoulSu:  requested number of processors reduced to:  21 ShMem   1 Linda.
 NMat=     1 NSing=     1 JSym2X= 2.
 CoulSu:  requested number of processors reduced to:  21 ShMem   1 Linda.
 NMat=     1 NSing=     1 JSym2X= 2.
 CoulSu:  requested number of processors reduced to:  21 ShMem   1 Linda.
 NMat=     1 NSing=     1 JSym2X= 2.
 CoulSu:  requested number of processors reduced to:  21 ShMem   1 Linda.
 NMat=     1 NSing=     1 JSym2X= 2.
 CoulSu:  requested number of processors reduced to:  21 ShMem   1 Linda.
 NMat=     1 NSing=     1 JSym2X= 2.
 CoulSu:  requested number of processors reduced to:  21 ShMem   1 Linda.
 NMat=     1 NSing=     1 JSym2X= 2.
 CoulSu:  requested number of processors reduced to:  21 ShMem   1 Linda.
 NMat=     1 NSing=     1 JSym2X= 2.
 CoulSu:  requested number of processors reduced to:  21 ShMem   1 Linda.
 NMat=     1 NSing=     1 JSym2X= 2.
 CoulSu:  requested number of processors reduced to:  21 ShMem   1 Linda.
 NMat=     1 NSing=     1 JSym2X= 2.
 CoulSu:  requested number of processors reduced to:  21 ShMem   1 Linda.
 NMat=     1 NSing=     1 JSym2X= 2.
 CoulSu:  requested number of processors reduced to:  21 ShMem   1 Linda.
 NMat=     1 NSing=     1 JSym2X= 2.
 CoulSu:  requested number of processors reduced to:  21 ShMem   1 Linda.
 NMat=     1 NSing=     1 JSym2X= 2.
 CoulSu:  requested number of processors reduced to:  21 ShMem   1 Linda.
 NMat=     1 NSing=     1 JSym2X= 2.
 CoulSu:  requested number of processors reduced to:  21 ShMem   1 Linda.
 NMat=     1 NSing=     1 JSym2X= 2.
 CoulSu:  requested number of processors reduced to:  21 ShMem   1 Linda.
 NMat=     1 NSing=     1 JSym2X= 2.
 CoulSu:  requested number of processors reduced to:  21 ShMem   1 Linda.
 NMat=     1 NSing=     1 JSym2X= 2.
 CoulSu:  requested number of processors reduced to:  21 ShMem   1 Linda.
 NMat=     1 NSing=     1 JSym2X= 2.
 CoulSu:  requested number of processors reduced to:  21 ShMem   1 Linda.
 NMat=     1 NSing=     1 JSym2X= 2.
 CoulSu:  requested number of processors reduced to:  21 ShMem   1 Linda.
 NMat=     1 NSing=     1 JSym2X= 2.
 CoulSu:  requested number of processors reduced to:  21 ShMem   1 Linda.
 NMat=     1 NSing=     1 JSym2X= 2.
 CoulSu:  requested number of processors reduced to:  21 ShMem   1 Linda.
 NMat=     1 NSing=     1 JSym2X= 2.
 CoulSu:  requested number of processors reduced to:  21 ShMem   1 Linda.
 NMat=     1 NSing=     0 JSym2X= 2.
 CoulSu:  requested number of processors reduced to:  21 ShMem   1 Linda.
 NMat=     1 NSing=     0 JSym2X= 2.
 CoulSu:  requested number of processors reduced to:  21 ShMem   1 Linda.
 NMat=     1 NSing=     0 JSym2X= 2.
 CoulSu:  requested number of processors reduced to:  21 ShMem   1 Linda.
 NMat=     1 NSing=     0 JSym2X= 2.
 CoulSu:  requested number of processors reduced to:  21 ShMem   1 Linda.
 NMat=     1 NSing=     0 JSym2X= 2.
 CoulSu:  requested number of processors reduced to:  21 ShMem   1 Linda.
 NMat=     1 NSing=     0 JSym2X= 2.
 CoulSu:  requested number of processors reduced to:  21 ShMem   1 Linda.
 NMat=     1 NSing=     0 JSym2X= 2.
 CoulSu:  requested number of processors reduced to:  21 ShMem   1 Linda.
 NMat=     1 NSing=     0 JSym2X= 2.
 CoulSu:  requested number of processors reduced to:  21 ShMem   1 Linda.
 NMat=     1 NSing=     0 JSym2X= 2.
 CoulSu:  requested number of processors reduced to:  21 ShMem   1 Linda.
 NMat=     1 NSing=     0 JSym2X= 2.
 CoulSu:  requested number of processors reduced to:  21 ShMem   1 Linda.
 NMat=     1 NSing=     0 JSym2X= 2.
 CoulSu:  requested number of processors reduced to:  21 ShMem   1 Linda.
 NMat=     1 NSing=     0 JSym2X= 2.
 CoulSu:  requested number of processors reduced to:  21 ShMem   1 Linda.
 NMat=     1 NSing=     0 JSym2X= 2.
 CoulSu:  requested number of processors reduced to:  21 ShMem   1 Linda.
 NMat=     1 NSing=     0 JSym2X= 2.
 CoulSu:  requested number of processors reduced to:  21 ShMem   1 Linda.
 NMat=     1 NSing=     0 JSym2X= 2.
 CoulSu:  requested number of processors reduced to:  21 ShMem   1 Linda.
 NMat=     1 NSing=     0 JSym2X= 2.
 CoulSu:  requested number of processors reduced to:  21 ShMem   1 Linda.
 NMat=     1 NSing=     0 JSym2X= 2.
 CoulSu:  requested number of processors reduced to:  21 ShMem   1 Linda.
 NMat=     1 NSing=     0 JSym2X= 2.
 CoulSu:  requested number of processors reduced to:  21 ShMem   1 Linda.
 NMat=     1 NSing=     0 JSym2X= 2.
 CoulSu:  requested number of processors reduced to:  21 ShMem   1 Linda.
 NMat=     1 NSing=     0 JSym2X= 2.
 CoulSu:  requested number of processors reduced to:  21 ShMem   1 Linda.
 NMat=     1 NSing=     0 JSym2X= 2.
 CoulSu:  requested number of processors reduced to:  21 ShMem   1 Linda.
 NMat=     1 NSing=     0 JSym2X= 2.
 CoulSu:  requested number of processors reduced to:  21 ShMem   1 Linda.
 NMat=     1 NSing=     0 JSym2X= 2.
 CoulSu:  requested number of processors reduced to:  21 ShMem   1 Linda.
 NMat=     1 NSing=     0 JSym2X= 2.
 CoulSu:  requested number of processors reduced to:  21 ShMem   1 Linda.
 Vector  16 SDiff=3.81D-04 TDiff=9.35D-01 assumed to be singlet.
 Vector  17 SDiff=9.73D-01 TDiff=3.87D-04 assumed to be triplet.
 Vector  37 SDiff=2.50D-04 TDiff=7.76D-01 assumed to be singlet.
 Vector  38 SDiff=7.37D-01 TDiff=2.37D-04 assumed to be triplet.
 Vector  40 SDiff=9.05D-01 TDiff=1.27D-04 assumed to be triplet.
 Vector  72 SDiff=1.39D-03 TDiff=8.42D-01 assumed to be singlet.
 Vector  73 SDiff=2.17D-04 TDiff=8.03D-01 assumed to be singlet.
 Vector  74 SDiff=8.32D-01 TDiff=1.55D-03 assumed to be triplet.
 Root      1 not converged, maximum delta is    0.030958336992948
 Excitation Energies [eV] at current iteration:
 Root      1 :    17.033905571545890   Change is   -0.212049420624055
 Root      2 :    17.238674403000130   Change is   -0.102935990930019
 Root      3 :    17.238674408286080   Change is   -0.102935985773855
 Root      4 :    17.238674417005090   Change is   -0.102935976966305
 Root      5 :    17.238674419415150   Change is   -0.102935974665614
 Root      6 :    17.238674427431700   Change is   -0.102935966589583
 Root      7 :    17.369534781079950   Change is   -0.389739134863135
 Root      8 :    17.370747244949590   Change is   -0.403557687160970
 Root      9 :    17.371738630350700   Change is   -0.410108088825265
 Root     10 :    17.559938609713560   Change is   -0.033595672988876
 Root     11 :    17.559938613624910   Change is   -0.033595669110713
 Root     12 :    17.559938614454320   Change is   -0.033595668273819
 Root     13 :    17.559938616250910   Change is   -0.033595666455234
 Root     14 :    17.559938618938000   Change is   -0.033595663746974
 Root     15 :    17.612701233258420   Change is   -0.001233930021797
 Root     16 :    17.612701233258890   Change is   -0.001233930021818
 Root     17 :    17.612701233258980   Change is   -0.001233930021766
 Root     18 :    17.612701233261690   Change is   -0.001233930021785
 Root     19 :    17.612701233275050   Change is   -0.001233930007676
 Root     20 :    17.612701233381020   Change is   -0.001233929900014
 Root     21 :    17.801966431883970   Change is   -0.086023160278461
 Root     22 :    17.801989767966660   Change is   -0.085410734579241
 Root     23 :    17.802012355940460   Change is   -0.086285030734648
 Root     24 :    18.842265283832110   Change is   -0.192991550723603
 Root     25 :    25.549720262943670   Change is   -0.612732751677967
 Root     26 :    25.549720303884380   Change is   -0.612732710681109
 Root     27 :    25.549720325998190   Change is   -0.612732688592934
 Root     28 :    25.549720345576190   Change is   -0.612732669085063
 Root     29 :    25.549720380597040   Change is   -0.612732634086265
 Root     30 :    25.562995422848250   Change is   -1.504692905509447
 Root     31 :    26.098970585376050   Change is   -0.210300534148448
 Root     32 :    26.098970642890820   Change is   -0.210300476647036
 Root     33 :    26.098970646035830   Change is   -0.210300473542515
 Root     34 :    26.098970653034800   Change is   -0.210300466495508
 Root     35 :    26.098970716356640   Change is   -0.210300403235869
 Root     36 :    27.163636134529720   Change is   -0.060350384562638
 Root     37 :    27.163636134530260   Change is   -0.060350384562638
 Root     38 :    27.163636134530450   Change is   -0.060350384562617
 Root     39 :    27.163636134531280   Change is   -0.060350384562656
 Root     40 :    27.163636134536460   Change is   -0.060350384557245
 Root     41 :    27.163636134577070   Change is   -0.060350384515666
 Root     42 :    28.012373770375350   Change is   -0.265565385907065
 Root     43 :    28.166747114612630   Change is   -0.327272271194028
 Root     44 :    28.169653267227750   Change is   -0.255883175231505
 Root     45 :    28.254717432993570   Change is   -0.316253436721050
 Root     46 :    28.420115113739840   Change is   -0.611453747451430
 Root     47 :    28.425841644596310   Change is   -0.484129746861807
 Root     48 :    33.476385061398760
 Iteration     3 Dimension   102 NMult    96 NNew      6
 Estimated number of processors is:   20
 CISAX will form     1 AO SS matrices at one time.
 NMat=     1 NSing=     1 JSym2X= 2.
 CoulSu:  requested number of processors reduced to:  21 ShMem   1 Linda.
 NMat=     1 NSing=     1 JSym2X= 2.
 CoulSu:  requested number of processors reduced to:  21 ShMem   1 Linda.
 NMat=     1 NSing=     1 JSym2X= 2.
 CoulSu:  requested number of processors reduced to:  21 ShMem   1 Linda.
 NMat=     1 NSing=     0 JSym2X= 2.
 CoulSu:  requested number of processors reduced to:  21 ShMem   1 Linda.
 NMat=     1 NSing=     0 JSym2X= 2.
 CoulSu:  requested number of processors reduced to:  21 ShMem   1 Linda.
 NMat=     1 NSing=     0 JSym2X= 2.
 CoulSu:  requested number of processors reduced to:  21 ShMem   1 Linda.
 Vector  15 SDiff=1.93D-01 TDiff=5.84D-01 assumed to be singlet.
 Vector  16 SDiff=1.06D-01 TDiff=8.99D-01 assumed to be singlet.
 Vector  17 SDiff=9.31D-01 TDiff=6.95D-03 assumed to be triplet.
 Vector  18 SDiff=1.09D-04 TDiff=6.38D-01 assumed to be singlet.
 Vector  36 SDiff=2.92D-04 TDiff=9.45D-01 assumed to be singlet.
 Vector  37 SDiff=3.02D-02 TDiff=7.74D-01 assumed to be singlet.
 Vector  38 SDiff=7.35D-01 TDiff=2.69D-02 assumed to be triplet.
 Vector  39 SDiff=8.01D-03 TDiff=8.00D-01 assumed to be singlet.
 Vector  40 SDiff=9.04D-01 TDiff=5.04D-04 assumed to be triplet.
 Vector  70 SDiff=6.93D-02 TDiff=9.64D-01 assumed to be singlet.
 Vector  71 SDiff=8.90D-01 TDiff=5.09D-02 assumed to be triplet.
 Vector  72 SDiff=1.99D-02 TDiff=9.89D-01 assumed to be singlet.
 Vector  73 SDiff=1.67D-02 TDiff=8.81D-01 assumed to be singlet.
 Vector  74 SDiff=8.20D-01 TDiff=1.87D-03 assumed to be triplet.
 Vector  94 SDiff=5.51D-03 TDiff=9.46D-01 assumed to be singlet.
 Vector  95 SDiff=8.84D-01 TDiff=6.16D-03 assumed to be triplet.
 Vector  96 SDiff=1.79D-03 TDiff=9.73D-01 assumed to be singlet.
 Vector  97 SDiff=1.06D-04 TDiff=9.86D-01 assumed to be singlet.
 Root      1 not converged, maximum delta is    0.001974615410752
 Excitation Energies [eV] at current iteration:
 Root      1 :    17.033275876628750   Change is   -0.000629694917144
 Root      2 :    17.238505344306700   Change is   -0.000169063979382
 Root      3 :    17.238505350694100   Change is   -0.000169052306029
 Root      4 :    17.559878675964670   Change is   -0.000059933748886
 Root      5 :    17.559878677139140   Change is   -0.000059937315191
 Root      6 :    17.559878679795790   Change is   -0.000059933829117
 Iteration     4 Dimension   108 NMult   102 NNew      6
 Estimated number of processors is:   20
 CISAX will form     1 AO SS matrices at one time.
 NMat=     1 NSing=     1 JSym2X= 2.
 CoulSu:  requested number of processors reduced to:  21 ShMem   1 Linda.
 NMat=     1 NSing=     1 JSym2X= 2.
 CoulSu:  requested number of processors reduced to:  21 ShMem   1 Linda.
 NMat=     1 NSing=     1 JSym2X= 2.
 CoulSu:  requested number of processors reduced to:  21 ShMem   1 Linda.
 NMat=     1 NSing=     0 JSym2X= 2.
 CoulSu:  requested number of processors reduced to:  21 ShMem   1 Linda.
 NMat=     1 NSing=     0 JSym2X= 2.
 CoulSu:  requested number of processors reduced to:  21 ShMem   1 Linda.
 NMat=     1 NSing=     0 JSym2X= 2.
 CoulSu:  requested number of processors reduced to:  21 ShMem   1 Linda.
 Vector  15 SDiff=4.94D-03 TDiff=6.96D-01 assumed to be singlet.
 Vector  16 SDiff=3.24D-02 TDiff=9.09D-01 assumed to be singlet.
 Vector  17 SDiff=9.70D-01 TDiff=5.21D-02 assumed to be triplet.
 Vector  36 SDiff=1.60D-04 TDiff=9.43D-01 assumed to be singlet.
 Vector  37 SDiff=7.93D-04 TDiff=7.76D-01 assumed to be singlet.
 Vector  38 SDiff=7.35D-01 TDiff=9.05D-04 assumed to be triplet.
 Vector  39 SDiff=1.04D-04 TDiff=8.05D-01 assumed to be singlet.
 Vector  71 SDiff=1.27D-02 TDiff=7.97D-01 assumed to be singlet.
 Vector  72 SDiff=8.95D-01 TDiff=2.71D-02 assumed to be triplet.
 Vector  74 SDiff=1.16D-02 TDiff=8.88D-01 assumed to be singlet.
 Vector  75 SDiff=8.22D-01 TDiff=4.50D-04 assumed to be triplet.
 Vector  97 SDiff=8.84D-01 TDiff=5.69D-04 assumed to be triplet.
 Vector  98 SDiff=6.70D-04 TDiff=9.41D-01 assumed to be singlet.
 Vector  99 SDiff=5.19D-04 TDiff=9.70D-01 assumed to be singlet.
 Vector 100 SDiff=3.12D-04 TDiff=9.85D-01 assumed to be singlet.
 Root      1 has converged.
 Excitation Energies [eV] at current iteration:
 Root      1 :    17.033271177632720   Change is   -0.000004698996023
 Root      2 :    17.238505234325040   Change is   -0.000000109981665
 Root      3 :    17.238505239108840   Change is   -0.000000111585258
 Root      4 :    17.559878657807500   Change is   -0.000000021988289
 Root      5 :    17.559878658945260   Change is   -0.000000017019413
 Root      6 :    17.559878660607860   Change is   -0.000000016531274
 Convergence achieved on expansion vectors.
 ***********************************************************************
 Stability analysis using <AA,BB:AA,BB> singles matrix:
 ***********************************************************************
 1PDM for each excited state written to RWF  633
 Ground to excited state transition densities written to RWF  633

 Eigenvectors of the stability matrix:
 
 Excited state symmetry could not be determined.
 Eigenvector   1:      Triplet-?Sym  Eigenvalue= 0.6259612  <S**2>=2.000
       3 ->  6         0.28926
       3 ->  8         0.27542
       4 ->  7         0.39347
       5 ->  6         0.26681
       5 ->  8        -0.29635
 The wavefunction is stable under the perturbations considered.
 Leave Link  914 at Sat Apr 17 20:17:51 2021, MaxMem=   104857600 cpu:            2707.3 elap:              87.2
 (Enter /s/ls4/users/knvvv/bin/g16sse/l508.exe)
 The wavefunction is already stable.
 Leave Link  508 at Sat Apr 17 20:17:51 2021, MaxMem=   104857600 cpu:               2.2 elap:               0.1
 (Enter /s/ls4/users/knvvv/bin/g16sse/l601.exe)
 Copying SCF densities to generalized density rwf, IOpCl= 0 IROHF=0.

 **********************************************************************

            Population analysis using the SCF density.

 **********************************************************************

 Orbital symmetries:
       Occupied  (A1G) (A1G) (T1U) (T1U) (T1U)
       Virtual   (T1U) (T1U) (T1U) (A1G) (T1U) (T1U) (T1U) (T2G)
                 (T2G) (T2G) (EG) (EG) (A1G) (T1U) (T1U) (T1U)
                 (T2G) (T2G) (T2G) (EG) (EG) (A1G) (T2U) (T2U)
                 (T2U) (A2U) (T1U) (T1U) (T1U) (T1U) (T1U) (T1U)
                 (T2G) (T2G) (T2G) (EG) (EG) (T2G) (T2G) (T2G)
                 (T1G) (T1G) (T1G) (EG) (EG) (A1G) (A1G) (?A) (?A)
                 (?A) (?A) (T1U) (T1U) (T1U) (T2G) (T2G) (T2G)
                 (EG) (EG) (A1G) (A1G)
 The electronic state is 1-A1G.
 Alpha  occ. eigenvalues --  -31.58999  -1.62324  -0.68646  -0.68646  -0.68646
 Alpha virt. eigenvalues --    0.07286   0.07286   0.07286   0.13042   0.48895
 Alpha virt. eigenvalues --    0.48895   0.48895   0.54118   0.54118   0.54118
 Alpha virt. eigenvalues --    0.54118   0.54118   1.08475   1.78239   1.78239
 Alpha virt. eigenvalues --    1.78239   2.12039   2.12039   2.12039   2.12039
 Alpha virt. eigenvalues --    2.12039   4.61615   5.50389   5.50389   5.50389
 Alpha virt. eigenvalues --    5.50389   5.50389   5.50389   5.50389   5.96897
 Alpha virt. eigenvalues --    5.96897   5.96897   6.61928   6.61928   6.61928
 Alpha virt. eigenvalues --    6.61928   6.61928  14.21197  14.21197  14.21197
 Alpha virt. eigenvalues --   14.21197  14.21197  14.21197  14.21197  14.21197
 Alpha virt. eigenvalues --   14.21197  17.71476  18.88210  18.88210  18.88210
 Alpha virt. eigenvalues --   18.88210  18.88210  18.88210  18.88210  20.24464
 Alpha virt. eigenvalues --   20.24464  20.24464  20.24464  20.24464  64.46090
 Alpha virt. eigenvalues --  336.65910
          Condensed to atoms (all electrons):
               1
     1  Ne  10.000000
 Mulliken charges:
               1
     1  Ne   0.000000
 Sum of Mulliken charges =   0.00000
 Mulliken charges with hydrogens summed into heavy atoms:
               1
     1  Ne   0.000000
 Electronic spatial extent (au):  <R**2>=              9.6055
 Charge=              0.0000 electrons
 Dipole moment (field-independent basis, Debye):
    X=              0.0000    Y=             -0.0000    Z=              0.0000  Tot=              0.0000
 Quadrupole moment (field-independent basis, Debye-Ang):
   XX=             -4.3066   YY=             -4.3066   ZZ=             -4.3066
   XY=             -0.0000   XZ=             -0.0000   YZ=             -0.0000
 Traceless Quadrupole moment (field-independent basis, Debye-Ang):
   XX=              0.0000   YY=              0.0000   ZZ=              0.0000
   XY=             -0.0000   XZ=             -0.0000   YZ=             -0.0000
 Octapole moment (field-independent basis, Debye-Ang**2):
  XXX=              0.0000  YYY=              0.0000  ZZZ=              0.0000  XYY=              0.0000
  XXY=              0.0000  XXZ=              0.0000  XZZ=              0.0000  YZZ=              0.0000
  YYZ=              0.0000  XYZ=             -0.0000
 Hexadecapole moment (field-independent basis, Debye-Ang**3):
 XXXX=             -2.2321 YYYY=             -2.2321 ZZZZ=             -2.2321 XXXY=              0.0000
 XXXZ=             -0.0000 YYYX=             -0.0000 YYYZ=              0.0000 ZZZX=              0.0000
 ZZZY=             -0.0000 XXYY=             -0.7440 XXZZ=             -0.7440 YYZZ=             -0.7440
 XXYZ=              0.0000 YYXZ=              0.0000 ZZXY=             -0.0000
 N-N= 0.000000000000D+00 E-N=-3.110612231615D+02  KE= 1.286337072031D+02
 PrsmSu:  requested number of processors reduced to:  21 ShMem   1 Linda.
 No NMR shielding tensors so no spin-rotation constants.
 Leave Link  601 at Sat Apr 17 20:17:57 2021, MaxMem=   104857600 cpu:             270.2 elap:               5.9
 (Enter /s/ls4/users/knvvv/bin/g16sse/l9999.exe)

 Test job not archived.
 1\1\GINC-N154\Stability\RM062X\Gen\Ne1\KNVVV\17-Apr-2021\0\\#P M062X/G
 EN Integral=UltraFineGrid SCF=NoSymm Stable=(RExt, Opt) IOp(1/33=1)\\D
 atabase calculations.\\0,1\Ne,0,0.,0.,0.\\Version=ES64L-G16RevA.03\Sta
 te=1-A1G\HF=-128.9409091\RMSD=7.508e-10\Dipole=0.,0.,0.\Quadrupole=0.,
 0.,0.,0.,0.,0.\PG=OH [O(Ne1)]\\@


 THE ENLIGHTENED ONE, BECAUSE HE SAW MANKIND DROWNING  
 IN THE GREAT SEA OF BIRTH, DEATH, AND SORROW, LONGED TO SAVE 
 THEM, FOR THIS HE WAS MOVED TO PITY.                         
 BECAUSE HE SAW MEN OF THE WORLD STRAYING IN FALSE PATHS, AND 
 NONE TO GUIDE THEM, FOR THIS HE WAS MOVED TO PITY.           
                     ..................                       
 BECAUSE HE SAW THE MEN OF THE WORLD PLOUGHING THEIR FIELDS,  
 SOWING THE SEED, TRAFFICKING, HUCKSTERING, BUYING, SELLING,  
 AND AT THE END WINNOWING NOTHING BUT BITTERNESS,             
 FOR THIS HE WAS MOVED TO PITY......                   
                   BUDAH'S PITY - UPSAKA SILA SUTRA           
 Job cpu time:       0 days  2 hours 39 minutes  5.0 seconds.
 Elapsed time:       0 days  0 hours  3 minutes 54.6 seconds.
 File lengths (MBytes):  RWF=     25 Int=      0 D2E=      0 Chk=      2 Scr=      1
 Normal termination of Gaussian 16 at Sat Apr 17 20:17:57 2021.
