 Entering Gaussian System, Link 0=/s/ls4/users/knvvv/bin/g16sse/g16
 Input=data/database/M062X--def2-QZVPPD--14_C10H10_Platonic24.gjf
 Output=data/database/M062X--def2-QZVPPD--14_C10H10_Platonic24.log
 Initial command:
 /s/ls4/users/knvvv/bin/g16sse/l1.exe "/s/ls4/users/knvvv/bin/scratch/Gau-42748.inp" -scrdir="/s/ls4/users/knvvv/bin/scratch/"
 Entering Link 1 = /s/ls4/users/knvvv/bin/g16sse/l1.exe PID=     42749.
  
 Copyright (c) 1988,1990,1992,1993,1995,1998,2003,2009,2016,
            Gaussian, Inc.  All Rights Reserved.
  
 This is part of the Gaussian(R) 16 program.  It is based on
 the Gaussian(R) 09 system (copyright 2009, Gaussian, Inc.),
 the Gaussian(R) 03 system (copyright 2003, Gaussian, Inc.),
 the Gaussian(R) 98 system (copyright 1998, Gaussian, Inc.),
 the Gaussian(R) 94 system (copyright 1995, Gaussian, Inc.),
 the Gaussian 92(TM) system (copyright 1992, Gaussian, Inc.),
 the Gaussian 90(TM) system (copyright 1990, Gaussian, Inc.),
 the Gaussian 88(TM) system (copyright 1988, Gaussian, Inc.),
 the Gaussian 86(TM) system (copyright 1986, Carnegie Mellon
 University), and the Gaussian 82(TM) system (copyright 1983,
 Carnegie Mellon University). Gaussian is a federally registered
 trademark of Gaussian, Inc.
  
 This software contains proprietary and confidential information,
 including trade secrets, belonging to Gaussian, Inc.
  
 This software is provided under written license and may be
 used, copied, transmitted, or stored only in accord with that
 written license.
  
 The following legend is applicable only to US Government
 contracts under FAR:
  
                    RESTRICTED RIGHTS LEGEND
  
 Use, reproduction and disclosure by the US Government is
 subject to restrictions as set forth in subparagraphs (a)
 and (c) of the Commercial Computer Software - Restricted
 Rights clause in FAR 52.227-19.
  
 Gaussian, Inc.
 340 Quinnipiac St., Bldg. 40, Wallingford CT 06492
  
  
 ---------------------------------------------------------------
 Warning -- This program may not be used in any manner that
 competes with the business of Gaussian, Inc. or will provide
 assistance to any competitor of Gaussian, Inc.  The licensee
 of this program is prohibited from giving any competitor of
 Gaussian, Inc. access to this program.  By using this program,
 the user acknowledges that Gaussian, Inc. is engaged in the
 business of creating and licensing software in the field of
 computational chemistry and represents and warrants to the
 licensee that it is not a competitor of Gaussian, Inc. and that
 it will not use this program in any manner prohibited above.
 ---------------------------------------------------------------
  

 Cite this work as:
 Gaussian 16, Revision A.03,
 M. J. Frisch, G. W. Trucks, H. B. Schlegel, G. E. Scuseria, 
 M. A. Robb, J. R. Cheeseman, G. Scalmani, V. Barone, 
 G. A. Petersson, H. Nakatsuji, X. Li, M. Caricato, A. V. Marenich, 
 J. Bloino, B. G. Janesko, R. Gomperts, B. Mennucci, H. P. Hratchian, 
 J. V. Ortiz, A. F. Izmaylov, J. L. Sonnenberg, D. Williams-Young, 
 F. Ding, F. Lipparini, F. Egidi, J. Goings, B. Peng, A. Petrone, 
 T. Henderson, D. Ranasinghe, V. G. Zakrzewski, J. Gao, N. Rega, 
 G. Zheng, W. Liang, M. Hada, M. Ehara, K. Toyota, R. Fukuda, 
 J. Hasegawa, M. Ishida, T. Nakajima, Y. Honda, O. Kitao, H. Nakai, 
 T. Vreven, K. Throssell, J. A. Montgomery, Jr., J. E. Peralta, 
 F. Ogliaro, M. J. Bearpark, J. J. Heyd, E. N. Brothers, K. N. Kudin, 
 V. N. Staroverov, T. A. Keith, R. Kobayashi, J. Normand, 
 K. Raghavachari, A. P. Rendell, J. C. Burant, S. S. Iyengar, 
 J. Tomasi, M. Cossi, J. M. Millam, M. Klene, C. Adamo, R. Cammi, 
 J. W. Ochterski, R. L. Martin, K. Morokuma, O. Farkas, 
 J. B. Foresman, and D. J. Fox, Gaussian, Inc., Wallingford CT, 2016.
 
 ******************************************
 Gaussian 16:  ES64L-G16RevA.03 25-Dec-2016
                17-Apr-2021 
 ******************************************
 %RWF=temp8_46414,70GB
 %nprocshared=48
 Will use up to   48 processors via shared memory.
 Default route: MaxDisk=80GB
 ----------------------------------------------------------------------
 #P M062X/GEN Integral=UltraFineGrid SCF=NoSymm Stable=(RExt, Opt) IOp(
 1/33=1)
 ----------------------------------------------------------------------
 1/33=1,38=1,172=1/1;
 2/12=2,17=6,18=5,40=1/2;
 3/5=7,11=2,25=1,30=1,74=-55,75=-5/1,2,3;
 4/9=2/1;
 5/5=2,38=5/2;
 6/7=2,8=2,9=2,10=2,28=1/1;
 8/6=1,10=90,11=11/1;
 9/8=-3,42=1,46=1/14;
 5/5=2,8=3,17=40,38=5/8(-2);
 6/7=2,8=2,9=2,10=2,28=1/1;
 99/5=1,9=1/99;
 Leave Link    1 at Sat Apr 17 11:08:14 2021, MaxMem=           0 cpu:              11.4 elap:               0.3
 (Enter /s/ls4/users/knvvv/bin/g16sse/l101.exe)
 ONIOM data not found on unit 2.
 ----------------------
 Database calculations.
 ----------------------
 TstMul:  ICh=     0
 TstMul:  Mul=     1
 TstMul:  ICh=     0
 TstMul:  Mul=     1
 Symbolic Z-matrix:
 Charge =  0 Multiplicity = 1
 C                     0.        1.32264   0.78337 
 C                     1.25791   0.40872   0.78337 
 C                     0.77743  -1.07004   0.78337 
 C                    -0.77743  -1.07004   0.78337 
 C                    -1.25791   0.40872   0.78337 
 C                     0.        1.32264  -0.78337 
 C                     1.25791   0.40872  -0.78337 
 C                     0.77743  -1.07004  -0.78337 
 C                    -0.77743  -1.07004  -0.78337 
 C                    -1.25791   0.40872  -0.78337 
 H                     0.        2.23057  -1.38076 
 H                     2.1214    0.68928  -1.38076 
 H                     1.3111   -1.80457  -1.38076 
 H                    -1.3111   -1.80457  -1.38076 
 H                    -2.1214    0.68928  -1.38076 
 H                    -2.1214    0.68928   1.38076 
 H                     0.        2.23057   1.38076 
 H                     2.1214    0.68928   1.38076 
 H                     1.3111   -1.80457   1.38076 
 H                    -1.3111   -1.80457   1.38076 
 
 RdStrC is calling ZToCFu for IStruc=1 NZ=    20.
 PrtBox:  NBox=     2 Levels=  1 BoxLen=    8.00 SMaxX=        8.02
          Shift=            4.008861            3.410141            2.609262
 Box      1 Number                   0 centers from      1 to     18:
 Box      2 Number                   4 centers from     19 to     20:
 After GenITR:
 ITRead=  0  0  0  0  0  0  0  0  0  0  0  0  0  0  0  0  0  0  0  0
 MicOpt= -1 -1 -1 -1 -1 -1 -1 -1 -1 -1 -1 -1 -1 -1 -1 -1 -1 -1 -1 -1
 ITRead=  0  0  0  0  0  0  0  0  0  0  0  0  0  0  0  0  0  0  0  0
 MicOpt= -1 -1 -1 -1 -1 -1 -1 -1 -1 -1 -1 -1 -1 -1 -1 -1 -1 -1 -1 -1
 NAtoms=     20 NQM=       20 NQMF=       0 NMMI=      0 NMMIF=      0
                NMic=       0 NMicF=      0.
                    Isotopes and Nuclear Properties:
 (Nuclear quadrupole moments (NQMom) in fm**2, nuclear magnetic moments (NMagM)
  in nuclear magnetons)

  Atom         1           2           3           4           5           6           7           8           9          10
 IAtWgt=          12          12          12          12          12          12          12          12          12          12
 AtmWgt=  12.0000000  12.0000000  12.0000000  12.0000000  12.0000000  12.0000000  12.0000000  12.0000000  12.0000000  12.0000000
 NucSpn=           0           0           0           0           0           0           0           0           0           0
 AtZEff=  -0.0000000  -0.0000000  -0.0000000  -0.0000000  -0.0000000  -0.0000000  -0.0000000  -0.0000000  -0.0000000  -0.0000000
 NQMom=    0.0000000   0.0000000   0.0000000   0.0000000   0.0000000   0.0000000   0.0000000   0.0000000   0.0000000   0.0000000
 NMagM=    0.0000000   0.0000000   0.0000000   0.0000000   0.0000000   0.0000000   0.0000000   0.0000000   0.0000000   0.0000000
 AtZNuc=   6.0000000   6.0000000   6.0000000   6.0000000   6.0000000   6.0000000   6.0000000   6.0000000   6.0000000   6.0000000

  Atom        11          12          13          14          15          16          17          18          19          20
 IAtWgt=           1           1           1           1           1           1           1           1           1           1
 AtmWgt=   1.0078250   1.0078250   1.0078250   1.0078250   1.0078250   1.0078250   1.0078250   1.0078250   1.0078250   1.0078250
 NucSpn=           1           1           1           1           1           1           1           1           1           1
 AtZEff=  -0.0000000  -0.0000000  -0.0000000  -0.0000000  -0.0000000  -0.0000000  -0.0000000  -0.0000000  -0.0000000  -0.0000000
 NQMom=    0.0000000   0.0000000   0.0000000   0.0000000   0.0000000   0.0000000   0.0000000   0.0000000   0.0000000   0.0000000
 NMagM=    2.7928460   2.7928460   2.7928460   2.7928460   2.7928460   2.7928460   2.7928460   2.7928460   2.7928460   2.7928460
 AtZNuc=   1.0000000   1.0000000   1.0000000   1.0000000   1.0000000   1.0000000   1.0000000   1.0000000   1.0000000   1.0000000
 No MM parameters found.
 Leave Link  101 at Sat Apr 17 11:08:15 2021, MaxMem=   104857600 cpu:              10.7 elap:               0.3
 (Enter /s/ls4/users/knvvv/bin/g16sse/l202.exe)
                          Input orientation:                          
 ---------------------------------------------------------------------
 Center     Atomic      Atomic             Coordinates (Angstroms)
 Number     Number       Type             X           Y           Z
 ---------------------------------------------------------------------
      1          6           0        0.000000    1.322643    0.783371
      2          6           0        1.257909    0.408719    0.783371
      3          6           0        0.777430   -1.070041    0.783371
      4          6           0       -0.777430   -1.070041    0.783371
      5          6           0       -1.257909    0.408719    0.783371
      6          6           0        0.000000    1.322643   -0.783371
      7          6           0        1.257909    0.408719   -0.783371
      8          6           0        0.777430   -1.070041   -0.783371
      9          6           0       -0.777430   -1.070041   -0.783371
     10          6           0       -1.257909    0.408719   -0.783371
     11          1           0        0.000000    2.230570   -1.380762
     12          1           0        2.121398    0.689284   -1.380762
     13          1           0        1.311096   -1.804569   -1.380762
     14          1           0       -1.311096   -1.804569   -1.380762
     15          1           0       -2.121398    0.689284   -1.380762
     16          1           0       -2.121398    0.689284    1.380762
     17          1           0        0.000000    2.230570    1.380762
     18          1           0        2.121398    0.689284    1.380762
     19          1           0        1.311096   -1.804569    1.380762
     20          1           0       -1.311096   -1.804569    1.380762
 ---------------------------------------------------------------------
                    Distance matrix (angstroms):
                    1          2          3          4          5
     1  C    0.000000
     2  C    1.554861   0.000000
     3  C    2.515817   1.554861   0.000000
     4  C    2.515817   2.515817   1.554860   0.000000
     5  C    1.554861   2.515818   2.515817   1.554861   0.000000
     6  C    1.566742   2.207323   2.963784   2.963784   2.207323
     7  C    2.207323   1.566742   2.207322   2.963784   2.963785
     8  C    2.963784   2.207322   1.566742   2.207322   2.963784
     9  C    2.963784   2.963784   2.207322   1.566742   2.207322
    10  C    2.207323   2.963785   2.963784   2.207322   1.566742
    11  H    2.346871   3.095957   4.022673   4.022673   3.095957
    12  H    3.095956   2.346871   3.095956   4.022673   4.022674
    13  H    4.022673   3.095956   2.346871   3.095956   4.022674
    14  H    4.022673   4.022674   3.095956   2.346871   3.095956
    15  H    3.095956   4.022674   4.022673   3.095956   2.346871
    16  H    2.293109   3.443154   3.443153   2.293109   1.086833
    17  H    1.086834   2.293110   3.443154   3.443154   2.293110
    18  H    2.293109   1.086833   2.293109   3.443153   3.443154
    19  H    3.443153   2.293109   1.086833   2.293109   3.443154
    20  H    3.443153   3.443154   2.293109   1.086833   2.293109
                    6          7          8          9         10
     6  C    0.000000
     7  C    1.554861   0.000000
     8  C    2.515817   1.554861   0.000000
     9  C    2.515817   2.515817   1.554860   0.000000
    10  C    1.554861   2.515818   2.515817   1.554861   0.000000
    11  H    1.086834   2.293110   3.443154   3.443154   2.293110
    12  H    2.293109   1.086833   2.293109   3.443153   3.443154
    13  H    3.443153   2.293109   1.086833   2.293109   3.443154
    14  H    3.443153   3.443154   2.293109   1.086833   2.293109
    15  H    2.293109   3.443154   3.443153   2.293109   1.086833
    16  H    3.095956   4.022674   4.022673   3.095956   2.346871
    17  H    2.346871   3.095957   4.022673   4.022673   3.095957
    18  H    3.095956   2.346871   3.095956   4.022673   4.022674
    19  H    4.022673   3.095956   2.346871   3.095956   4.022674
    20  H    4.022673   4.022674   3.095956   2.346871   3.095956
                   11         12         13         14         15
    11  H    0.000000
    12  H    2.622192   0.000000
    13  H    4.242796   2.622192   0.000000
    14  H    4.242796   4.242796   2.622192   0.000000
    15  H    2.622192   4.242796   4.242796   2.622192   0.000000
    16  H    3.808137   5.062345   5.062345   3.808137   2.761524
    17  H    2.761524   3.808137   5.062345   5.062345   3.808137
    18  H    3.808137   2.761524   3.808137   5.062345   5.062345
    19  H    5.062345   3.808137   2.761524   3.808137   5.062345
    20  H    5.062345   5.062345   3.808137   2.761524   3.808137
                   16         17         18         19         20
    16  H    0.000000
    17  H    2.622192   0.000000
    18  H    4.242796   2.622192   0.000000
    19  H    4.242796   4.242796   2.622192   0.000000
    20  H    2.622192   4.242796   4.242796   2.622192   0.000000
 Stoichiometry    C10H10
 Framework group  D5H[5SGV(C2H2)]
 Deg. of freedom     4
 Full point group                 D5H     NOp  20
 Largest Abelian subgroup         C2V     NOp   4
 Largest concise Abelian subgroup C2V     NOp   4
                         Standard orientation:                         
 ---------------------------------------------------------------------
 Center     Atomic      Atomic             Coordinates (Angstroms)
 Number     Number       Type             X           Y           Z
 ---------------------------------------------------------------------
      1          6           0       -0.000000    1.322643    0.783371
      2          6           0        1.257908    0.408719    0.783371
      3          6           0        0.777430   -1.070041    0.783371
      4          6           0       -0.777430   -1.070041    0.783371
      5          6           0       -1.257908    0.408719    0.783371
      6          6           0        0.000000    1.322643   -0.783371
      7          6           0        1.257908    0.408719   -0.783371
      8          6           0        0.777430   -1.070041   -0.783371
      9          6           0       -0.777430   -1.070041   -0.783371
     10          6           0       -1.257908    0.408719   -0.783371
     11          1           0       -0.000000    2.230570   -1.380762
     12          1           0        2.121398    0.689284   -1.380762
     13          1           0        1.311096   -1.804569   -1.380762
     14          1           0       -1.311096   -1.804569   -1.380762
     15          1           0       -2.121398    0.689284   -1.380762
     16          1           0       -2.121398    0.689284    1.380762
     17          1           0       -0.000000    2.230570    1.380762
     18          1           0        2.121398    0.689284    1.380762
     19          1           0        1.311096   -1.804569    1.380762
     20          1           0       -1.311096   -1.804569    1.380762
 ---------------------------------------------------------------------
 Rotational constants (GHZ):           2.2673959           2.2673959           1.9432426
 Leave Link  202 at Sat Apr 17 11:08:15 2021, MaxMem=   104857600 cpu:              18.5 elap:               0.4
 (Enter /s/ls4/users/knvvv/bin/g16sse/l301.exe)
 General basis read from cards:  (5D, 7F)
 Centers:      11     12     13     14     15     16     17     18     19     20
 S 4 1.00
     Exponent=  1.9069169000D+02 Coefficients=  7.0815167000D-04
     Exponent=  2.8605532000D+01 Coefficients=  5.4678827000D-03
     Exponent=  6.5095943000D+00 Coefficients=  2.7966605000D-02
     Exponent=  1.8412455000D+00 Coefficients=  1.0764538000D-01
 S 1 1.00
     Exponent=  5.9853725000D-01 Coefficients=  1.0000000000D+00
 S 1 1.00
     Exponent=  2.1397624000D-01 Coefficients=  1.0000000000D+00
 S 1 1.00
     Exponent=  8.0316286000D-02 Coefficients=  1.0000000000D+00
 P 1 1.00
     Exponent=  2.2920000000D+00 Coefficients=  1.0000000000D+00
 P 1 1.00
     Exponent=  8.3800000000D-01 Coefficients=  1.0000000000D+00
 P 1 1.00
     Exponent=  2.9200000000D-01 Coefficients=  1.0000000000D+00
 P 1 1.00
     Exponent=  8.4063199228D-02 Coefficients=  1.0000000000D+00
 D 1 1.00
     Exponent=  2.0620000000D+00 Coefficients=  1.0000000000D+00
 D 1 1.00
     Exponent=  6.6200000000D-01 Coefficients=  1.0000000000D+00
 F 1 1.00
     Exponent=  1.3970000000D+00 Coefficients=  1.0000000000D+00
 ****
 Centers:       1      2      3      4      5      6      7      8      9     10
 S 8 1.00
     Exponent=  6.7025071029D+04 Coefficients=  3.8736308501D-05
     Exponent=  1.0039986538D+04 Coefficients=  3.0107917575D-04
     Exponent=  2.2849316911D+03 Coefficients=  1.5787918095D-03
     Exponent=  6.4714122130D+02 Coefficients=  6.6087087195D-03
     Exponent=  2.1109472335D+02 Coefficients=  2.3367123250D-02
     Exponent=  7.6177643862D+01 Coefficients=  7.0420716898D-02
     Exponent=  2.9633839163D+01 Coefficients=  1.7360344953D-01
     Exponent=  1.2187785081D+01 Coefficients=  3.2292305648D-01
 S 2 1.00
     Exponent=  5.3026006299D+01 Coefficients=  7.4897404492D-02
     Exponent=  1.5258502776D+01 Coefficients=  7.6136220983D-01
 S 1 1.00
     Exponent=  5.2403957464D+00 Coefficients=  1.0000000000D+00
 S 1 1.00
     Exponent=  2.2905022379D+00 Coefficients=  1.0000000000D+00
 S 1 1.00
     Exponent=  6.9673283006D-01 Coefficients=  1.0000000000D+00
 S 1 1.00
     Exponent=  2.7599337363D-01 Coefficients=  1.0000000000D+00
 S 1 1.00
     Exponent=  1.0739884389D-01 Coefficients=  1.0000000000D+00
 S 1 1.00
     Exponent=  4.4981404899D-02 Coefficients=  1.0000000000D+00
 P 5 1.00
     Exponent=  1.0512555082D+02 Coefficients=  8.4647553844D-04
     Exponent=  2.4884461066D+01 Coefficients=  6.6274038534D-03
     Exponent=  7.8637230826D+00 Coefficients=  3.0120390419D-02
     Exponent=  2.8407001835D+00 Coefficients=  9.9951435476D-02
     Exponent=  1.1227137335D+00 Coefficients=  2.3826299282D-01
 P 1 1.00
     Exponent=  4.6050725555D-01 Coefficients=  1.0000000000D+00
 P 1 1.00
     Exponent=  1.8937530913D-01 Coefficients=  1.0000000000D+00
 P 1 1.00
     Exponent=  7.5983791611D-02 Coefficients=  1.0000000000D+00
 D 1 1.00
     Exponent=  1.8480000000D+00 Coefficients=  1.0000000000D+00
 D 1 1.00
     Exponent=  6.4900000000D-01 Coefficients=  1.0000000000D+00
 D 1 1.00
     Exponent=  2.2800000000D-01 Coefficients=  1.0000000000D+00
 D 1 1.00
     Exponent=  7.6889830417D-02 Coefficients=  1.0000000000D+00
 F 1 1.00
     Exponent=  1.4190000000D+00 Coefficients=  1.0000000000D+00
 F 1 1.00
     Exponent=  4.8500000000D-01 Coefficients=  1.0000000000D+00
 G 1 1.00
     Exponent=  1.0110000000D+00 Coefficients=  1.0000000000D+00
 ****
 Ernie: Thresh=  0.10000D-02 Tol=  0.10000D-05 Strict=F.
 There are   313 symmetry adapted cartesian basis functions of A1  symmetry.
 There are   272 symmetry adapted cartesian basis functions of A2  symmetry.
 There are   272 symmetry adapted cartesian basis functions of B1  symmetry.
 There are   313 symmetry adapted cartesian basis functions of B2  symmetry.
 There are   255 symmetry adapted basis functions of A1  symmetry.
 There are   225 symmetry adapted basis functions of A2  symmetry.
 There are   225 symmetry adapted basis functions of B1  symmetry.
 There are   255 symmetry adapted basis functions of B2  symmetry.
   960 basis functions,  1400 primitive gaussians,  1170 cartesian basis functions
    35 alpha electrons       35 beta electrons
       nuclear repulsion energy       541.4557004208 Hartrees.
 IExCor= 4336 DFT=T Ex+Corr=M062X ExCW=0 ScaHFX=  0.540000
 ScaDFX=  1.000000  1.000000  1.000000  1.000000 ScalE2=  1.000000  1.000000
 IRadAn=      5 IRanWt=     -1 IRanGd=            0 ICorTp=0 IEmpDi=  4
 NAtoms=   20 NActive=   20 NUniq=    2 SFac= 4.00D+00 NAtFMM=   60 NAOKFM=F Big=F
 Integral buffers will be    131072 words long.
 Raffenetti 2 integral format.
 Two-electron integral symmetry is turned on.
 Leave Link  301 at Sat Apr 17 11:08:15 2021, MaxMem=   104857600 cpu:              10.3 elap:               0.2
 (Enter /s/ls4/users/knvvv/bin/g16sse/l302.exe)
 NPDir=0 NMtPBC=     1 NCelOv=     1 NCel=       1 NClECP=     1 NCelD=      1
         NCelK=      1 NCelE2=     1 NClLst=     1 CellRange=     0.0.
 One-electron integrals computed using PRISM.
 One-electron integral symmetry used in STVInt
 PrsmSu:  requested number of processors reduced to:   3 ShMem   1 Linda.
 PrsmSu:  requested number of processors reduced to:  16 ShMem   1 Linda.
 NBasis=   960 RedAO= T EigKep=  1.44D-06  NBF=   255   225   225   255
 NBsUse=   943 1.00D-06 EigRej=  4.44D-07 NBFU=   253   219   222   249
 Precomputing XC quadrature grid using
 IXCGrd= 4 IRadAn=           5 IRanWt=          -1 IRanGd=           0 AccXCQ= 0.00D+00.
 Generated NRdTot=       0 NPtTot=           0 NUsed=           0 NTot=          32
 NSgBfM=  1167  1167  1167  1167  1167 MxSgAt=    20 MxSgA2=    20.
 Leave Link  302 at Sat Apr 17 11:08:19 2021, MaxMem=   104857600 cpu:             158.6 elap:               3.5
 (Enter /s/ls4/users/knvvv/bin/g16sse/l303.exe)
 DipDrv:  MaxL=1.
 Leave Link  303 at Sat Apr 17 11:08:32 2021, MaxMem=   104857600 cpu:             615.1 elap:              13.2
 (Enter /s/ls4/users/knvvv/bin/g16sse/l401.exe)
 SCF N**3 symmetry information disabled.
 ExpMin= 4.50D-02 ExpMax= 6.70D+04 ExpMxC= 6.47D+02 IAcc=3 IRadAn=         5 AccDes= 0.00D+00
 Harris functional with IExCor= 1009 and IRadAn=       5 diagonalized for initial guess.
 HarFok:  IExCor= 1009 AccDes= 0.00D+00 IRadAn=         5 IDoV= 1 UseB2=F ITyADJ=14
 ICtDFT=  3500011 ScaDFX=  1.000000  1.000000  1.000000  1.000000
 CalDSu:  requested number of processors reduced to:  38 ShMem   1 Linda.
 FoFCou: FMM=F IPFlag=           0 FMFlag=      100000 FMFlg1=           0
         NFxFlg=           0 DoJE=T BraDBF=F KetDBF=T FulRan=T
         wScrn=  0.000000 ICntrl=       500 IOpCl=  0 I1Cent=   200000004 NGrid=           0
         NMat0=    1 NMatS0=      1 NMatT0=    0 NMatD0=    1 NMtDS0=    0 NMtDT0=    0
 Petite list used in FoFCou.
 CoulSu:  requested number of processors reduced to:  13 ShMem   1 Linda.
 CoulSu:  requested number of processors reduced to:  14 ShMem   1 Linda.
 CoulSu:  requested number of processors reduced to:  21 ShMem   1 Linda.
 CoulSu:  requested number of processors reduced to:  21 ShMem   1 Linda.
 DSYEVD-2 returned Info=      446511 IAlg= 4 N=   943 NDim=   943 NE2=      108284 trying  DSYEV.
 Harris En= -386.762263443717    
 JPrj=0 DoOrth=F DoCkMO=F.
 Initial guess orbital symmetries:
       Occupied  (A1') (E1') (E1') (A2") (E1") (E1") (E2') (E2')
                 (E2") (E2") (A1') (E1') (E1') (A2") (E2') (E2')
                 (E1") (E1") (A1') (E2") (E2") (E1') (E1') (A1')
                 (E2') (E2') (A2") (E1') (E1') (E1") (E1") (E2")
                 (E2") (E2') (E2')
       Virtual   (A2") (E1') (E1') (A1') (E1") (E1") (E1') (E1')
                 (E2') (E2') (A2") (E1") (E1") (A1') (E2") (E2")
                 (A1') (E2') (E2') (E2') (E2') (A2") (E1') (E1')
                 (E2") (E2") (A2') (E1") (E1") (E1') (E1') (E2")
                 (E2") (E2') (E2') (E1") (E1") (A1') (E2") (E2")
                 (A2") (E1') (E1') (E1") (E1") (E2') (E2') (A1')
                 (A1") (E2') (E2') (E1') (E1') (E1") (E1") (A2")
                 (A1') (E2") (E2") (A2') (A2") (E2') (E2') (A1')
                 (E1') (E1') (A1") (E2") (E2") (A2") (E1') (E1')
                 (E2') (E2') (E1") (E1") (E2") (E2") (E1') (E1')
                 (E1") (E1") (E2') (E2') (A1') (E2") (E2") (E1')
                 (E1') (E2') (E2') (E1") (E1") (A1') (A2") (A2')
                 (E1") (E1") (E2") (E2") (E2') (E2') (E1') (E1')
                 (A2") (E1") (E1") (E1') (E1') (E2") (E2") (E2')
                 (E2') (A1') (E1") (E1") (E2") (E2") (E2') (E2')
                 (A2") (E1') (E1') (A1') (A1") (A2') (E2") (E2")
                 (E1') (E1') (E2') (E2') (E1') (E1') (A1") (A2")
                 (A1') (E1") (E1") (E2") (E2") (E2') (E2') (E1")
                 (E1") (E1") (E1") (E2') (E2') (A2") (E2") (E2")
                 (E1') (E1') (E1') (E1') (A1') (A1') (E2') (E2')
                 (A2") (E1') (E1') (A1') (E1") (E1") (E2") (E2")
                 (E2') (E2') (A2') (A1") (E1') (E1') (A2") (E2")
                 (E2") (E1") (E1") (E2") (E2") (E2") (E2") (A2')
                 (A1') (E1') (E1') (E1") (E1") (E1') (E1') (E2')
                 (E2') (A1') (A2") (E1") (E1") (E1") (E1") (E2')
                 (E2') (E2') (E2') (E2') (E2') (E1") (E1") (E1')
                 (E1') (E2") (E2") (A2") (A2") (E1') (E1') (E2')
                 (E2') (E2") (E2") (A1") (A1') (E1') (E1') (E1")
                 (E1") (E1") (E1") (E2') (E2') (E2") (E2") (E1')
                 (E1') (A1') (E1") (E1") (E1') (E1') (E2") (E2")
                 (E2') (E2') (A2') (A2") (A1") (E2") (E2") (A1')
                 (A2") (E1") (E1") (A2') (E2') (E2') (E1') (E1')
                 (E2") (E2") (A1') (E1') (E1') (E2') (E2') (A2")
                 (E2") (E2") (E1') (E1') (E2') (E2') (A1") (E1")
                 (E1") (A2") (E1") (E1") (E2') (E2') (A1') (E1')
                 (E1') (E2") (E2") (A2') (E2') (E2') (E2") (E2")
                 (A1') (E1") (E1") (E2") (E2") (E1") (E1") (E1')
                 (E1') (E2') (E2') (E2') (E2') (A2") (E2') (E2')
                 (E1') (E1') (A1") (A1') (E2") (E2") (E1') (E1')
                 (E1") (E1") (E2") (E2") (A1') (E1") (E1") (E2')
                 (E2') (A2") (E1') (E1') (E1") (E1") (E1') (E1')
                 (A2") (A1') (E2') (E2') (E1') (E1') (A2') (E2")
                 (E2") (E1') (E1') (E1") (E1") (E1") (E1") (E2")
                 (E2") (E2') (E2') (A2") (E2') (E2') (E2") (E2")
                 (A1') (E1") (E1") (E1') (E1') (A2") (A2') (E2')
                 (E2') (E2") (E2") (A2") (E1') (E1') (A1') (A1")
                 (E1") (E1") (A2') (E1') (E1') (E2") (E2") (E2')
                 (E2') (E1") (E1") (E2") (E2") (A1') (E1') (E1')
                 (E2") (E2") (E1") (E1") (A1') (A1") (E2') (E2')
                 (E2') (E2') (E1') (E1') (A2") (E1") (E1") (E1')
                 (E1') (E2') (E2') (A1') (E1") (E1") (E2") (E2")
                 (A2') (A2') (E2') (E2') (E2") (E2") (A1") (A2")
                 (A1') (A1") (E1') (E1') (E1") (E1") (E2") (E2")
                 (E2') (E2') (E1') (E1') (E2') (E2') (E1") (E1")
                 (E2") (E2") (A2") (E2") (E2") (A1') (E1") (E1")
                 (E1') (E1') (E1") (E1") (A2") (E2') (E2') (A1")
                 (E2") (E2") (E1") (E1") (E2') (E2') (E2") (E2")
                 (E1') (E1') (A2') (A2") (E2') (E2') (A1") (E1")
                 (E1") (E1') (E1') (E2') (E2') (E1') (E1') (A2")
                 (E2") (E2") (A1') (E1') (E1') (A2') (E2") (E2")
                 (E1") (E1") (E2") (E2") (E1") (E1") (E2') (E2')
                 (E1") (E1") (E2") (E2") (A2") (A2') (E2') (E2')
                 (E1") (E1") (A1') (E2") (E2") (E1') (E1') (A1")
                 (E2') (E2') (A1') (E2') (E2') (A1") (E1') (E1')
                 (A1') (E1") (E1") (E1') (E1') (E2") (E2") (E2')
                 (E2') (A2") (E2") (E2") (A2") (A1') (E1') (E1')
                 (E1") (E1") (E1') (E1') (A1') (E2') (E2') (E1')
                 (E1') (A2') (E2") (E2") (E2') (E2') (A2") (E1')
                 (E1') (E1") (E1") (E1') (E1') (E2") (E2") (E2')
                 (E2') (E1") (E1") (A2") (E2") (E2") (A2') (E2')
                 (E2') (A1') (E1") (E1") (A2") (A1') (E1') (E1')
                 (A1") (E2') (E2') (E1') (E1') (E2') (E2') (E2")
                 (E2") (A2") (A1') (A1') (E1') (E1') (E1") (E1")
                 (E2") (E2") (E1") (E1") (A2') (E1') (E1') (E1")
                 (E1") (A1") (E2") (E2") (E2') (E2') (E1") (E1")
                 (E2') (E2') (A2") (E2") (E2") (E2') (E2') (A2')
                 (E1') (E1') (A2") (E1") (E1") (E1') (E1') (E2")
                 (E2") (E1') (E1') (E1") (E1") (E2') (E2') (E2")
                 (E2") (E2') (E2') (E1") (E1") (A1") (E1') (E1')
                 (E1") (E1") (A2') (A1') (A2") (E2") (E2") (E1')
                 (E1') (E1") (E1") (A1') (A1") (E2") (E2") (E2')
                 (E2') (A2") (A1') (E2') (E2') (E2') (E2') (A2')
                 (E2") (E2") (E1') (E1') (E1") (E1") (E1") (E1")
                 (A1") (E2") (E2") (E1') (E1') (A1') (E2') (E2')
                 (A2") (E1') (E1') (E2") (E2") (E1") (E1") (E2')
                 (E2') (E1') (E1') (A2') (E2") (E2") (E1') (E1')
                 (A1") (E1") (E1") (A2") (E2') (E2') (E2") (E2")
                 (E1") (E1") (A2') (E2") (E2") (E2") (E2") (E2')
                 (E2') (E1') (E1') (A1') (E1") (E1") (A2") (E1')
                 (E1') (E2') (E2') (E2") (E2") (A1") (E2') (E2')
                 (A1') (E1") (E1") (E2") (E2") (A2') (A2") (E1")
                 (E1") (E1') (E1') (E2') (E2') (E1') (E1') (A2")
                 (A1') (E2") (E2") (E1") (E1") (E1") (E1") (E1')
                 (E1') (E2') (E2') (E2") (E2") (A1') (E2') (E2')
                 (A1") (E1") (E1") (A1") (E2') (E2') (A2') (E2")
                 (E2") (E1') (E1') (E1') (E1') (E2') (E2') (E1")
                 (E1") (A2") (A1') (A2') (E1") (E1") (E2") (E2")
                 (E2') (E2') (E1') (E1') (E2") (E2") (E1") (E1")
                 (A1") (A1') (E2") (E2") (A2") (E1") (E1") (A2")
                 (E1') (E1') (A2') (A1") (E1') (E1') (E1") (E1")
                 (E2") (E2") (A1') (E2') (E2') (E1') (E1') (A1")
                 (E2') (E2') (E2") (E2") (E2") (E2") (A2") (A2')
                 (E2') (E2') (E2') (E2') (E1") (E1") (E1') (E1')
                 (E1") (E1") (E2") (E2") (A1") (E1") (E1") (E2")
                 (E2") (E2") (E2") (A2") (E1') (E1') (A2') (E1")
                 (E1") (E1") (E1") (E2') (E2') (A1') (E2") (E2")
                 (E1') (E1') (A1') (A2") (A1") (E2') (E2') (E1')
                 (E1') (E2") (E2") (E2') (E2') (E1") (E1") (E1')
                 (E1') (A2") (E2') (E2') (E1") (E1") (E2") (E2")
                 (E1") (E1") (A2') (E2") (E2") (A1") (A1') (A2")
                 (E1') (E1') (E1") (E1") (E2') (E2') (E2") (E2")
                 (A1') (E1') (E1') (A2") (E1") (E1") (E2") (E2")
                 (E2') (E2') (A1') (E1') (E1') (A2") (E1") (E1")
                 (E2") (E2") (E2') (E2')
 The electronic state of the initial guess is 1-A1'.
 Leave Link  401 at Sat Apr 17 11:09:56 2021, MaxMem=   104857600 cpu:            3898.7 elap:              84.2
 (Enter /s/ls4/users/knvvv/bin/g16sse/l502.exe)
 Integral symmetry usage will be decided dynamically.
 Closed shell SCF:
 Using DIIS extrapolation, IDIIS=  1040.
 NGot=   104857600 LenX=   102042478 LenY=   100672408
 Requested convergence on RMS density matrix=1.00D-08 within 128 cycles.
 Requested convergence on MAX density matrix=1.00D-06.
 Requested convergence on             energy=1.00D-06.
 No special actions if energy rises.
 Fock matrices will be formed incrementally for  20 cycles.

 Cycle   1  Pass 1  IDiag  1:
 FoFJK:  IHMeth= 1 ICntrl=       0 DoSepK=F KAlg= 0 I1Cent=           0 FoldK=F
 IRaf= 950000000 NMat=       1 IRICut=       1 DoRegI=T DoRafI=F ISym2E= 1 IDoP0=0 IntGTp=1.
 FoFCou: FMM=F IPFlag=           0 FMFlag=      100000 FMFlg1=           0
         NFxFlg=           0 DoJE=F BraDBF=F KetDBF=F FulRan=T
         wScrn=  0.000000 ICntrl=         0 IOpCl=  0 I1Cent=           0 NGrid=           0
         NMat0=    1 NMatS0=      1 NMatT0=    0 NMatD0=    1 NMtDS0=    0 NMtDT0=    0
 Petite list used in FoFCou.
 CoulSu:  requested number of processors reduced to:  16 ShMem   1 Linda.
 CalDSu:  requested number of processors reduced to:  38 ShMem   1 Linda.
 E= -386.681553402604    
 DIIS: error= 3.45D-02 at cycle   1 NSaved=   1.
 NSaved= 1 IEnMin= 1 EnMin= -386.681553402604     IErMin= 1 ErrMin= 3.45D-02
 ErrMax= 3.45D-02  0.00D+00 EMaxC= 1.00D-01 BMatC= 4.21D-01 BMatP= 4.21D-01
 IDIUse=3 WtCom= 6.55D-01 WtEn= 3.45D-01
 Coeff-Com:  0.100D+01
 Coeff-En:   0.100D+01
 Coeff:      0.100D+01
 Gap=     0.353 Goal=   None    Shift=    0.000
 DSYEVD-2 returned Info=        1887 IAlg= 4 N=   943 NDim=   943 NE2=      106756 trying  DSYEV.
 GapD=    0.353 DampG=1.000 DampE=0.500 DampFc=0.5000 IDamp=-1.
 Damping current iteration by 5.00D-01
 RMSDP=2.21D-03 MaxDP=1.50D-01              OVMax= 1.50D-01

 Cycle   2  Pass 1  IDiag  1:
 RMSU=  7.95D-04    CP:  8.10D-01
 CoulSu:  requested number of processors reduced to:  16 ShMem   1 Linda.
 CalDSu:  requested number of processors reduced to:  38 ShMem   1 Linda.
 E= -386.785393311122     Delta-E=       -0.103839908517 Rises=F Damp=T
 DIIS: error= 1.60D-02 at cycle   2 NSaved=   2.
 NSaved= 2 IEnMin= 2 EnMin= -386.785393311122     IErMin= 2 ErrMin= 1.60D-02
 ErrMax= 1.60D-02  0.00D+00 EMaxC= 1.00D-01 BMatC= 6.65D-02 BMatP= 4.21D-01
 IDIUse=3 WtCom= 8.40D-01 WtEn= 1.60D-01
 Coeff-Com: -0.971D-01 0.110D+01
 Coeff-En:   0.928D-01 0.907D+00
 Coeff:     -0.667D-01 0.107D+01
 Gap=     0.341 Goal=   None    Shift=    0.000
 DSYEVD-2 returned Info=        1887 IAlg= 4 N=   943 NDim=   943 NE2=      106756 trying  DSYEV.
 RMSDP=1.83D-03 MaxDP=6.42D-02 DE=-1.04D-01 OVMax= 1.05D-01

 Cycle   3  Pass 1  IDiag  1:
 RMSU=  1.44D-03    CP:  5.77D-01  1.80D+00
 CoulSu:  requested number of processors reduced to:  16 ShMem   1 Linda.
 CalDSu:  requested number of processors reduced to:  38 ShMem   1 Linda.
 E= -386.907165465348     Delta-E=       -0.121772154227 Rises=F Damp=F
 DIIS: error= 1.41D-02 at cycle   3 NSaved=   3.
 NSaved= 3 IEnMin= 3 EnMin= -386.907165465348     IErMin= 3 ErrMin= 1.41D-02
 ErrMax= 1.41D-02  0.00D+00 EMaxC= 1.00D-01 BMatC= 2.61D-02 BMatP= 6.65D-02
 IDIUse=3 WtCom= 8.59D-01 WtEn= 1.41D-01
 Coeff-Com: -0.182D+00 0.471D+00 0.712D+00
 Coeff-En:   0.000D+00 0.000D+00 0.100D+01
 Coeff:     -0.157D+00 0.404D+00 0.752D+00
 Gap=     0.315 Goal=   None    Shift=    0.000
 DSYEVD-2 returned Info=        1887 IAlg= 4 N=   943 NDim=   943 NE2=      106756 trying  DSYEV.
 RMSDP=2.01D-04 MaxDP=9.06D-03 DE=-1.22D-01 OVMax= 2.50D-02

 Cycle   4  Pass 1  IDiag  1:
 RMSU=  1.87D-04    CP:  5.72D-01  1.84D+00  9.59D-01
 CoulSu:  requested number of processors reduced to:  16 ShMem   1 Linda.
 CalDSu:  requested number of processors reduced to:  38 ShMem   1 Linda.
 E= -386.927848861571     Delta-E=       -0.020683396222 Rises=F Damp=F
 DIIS: error= 2.22D-03 at cycle   4 NSaved=   4.
 NSaved= 4 IEnMin= 4 EnMin= -386.927848861571     IErMin= 4 ErrMin= 2.22D-03
 ErrMax= 2.22D-03  0.00D+00 EMaxC= 1.00D-01 BMatC= 8.32D-04 BMatP= 2.61D-02
 IDIUse=3 WtCom= 9.78D-01 WtEn= 2.22D-02
 Coeff-Com: -0.226D-01 0.488D-01 0.204D+00 0.770D+00
 Coeff-En:   0.000D+00 0.000D+00 0.000D+00 0.100D+01
 Coeff:     -0.221D-01 0.477D-01 0.199D+00 0.775D+00
 Gap=     0.317 Goal=   None    Shift=    0.000
 DSYEVD-2 returned Info=      669295 IAlg= 4 N=   943 NDim=   943 NE2=      106756 trying  DSYEV.
 RMSDP=1.24D-04 MaxDP=9.24D-03 DE=-2.07D-02 OVMax= 3.74D-03

 Cycle   5  Pass 1  IDiag  1:
 RMSU=  8.68D-05    CP:  5.67D-01  1.84D+00  9.12D-01  7.05D-01
 CoulSu:  requested number of processors reduced to:  16 ShMem   1 Linda.
 CalDSu:  requested number of processors reduced to:  38 ShMem   1 Linda.
 E= -386.928481614945     Delta-E=       -0.000632753375 Rises=F Damp=F
 DIIS: error= 1.26D-04 at cycle   5 NSaved=   5.
 NSaved= 5 IEnMin= 5 EnMin= -386.928481614945     IErMin= 5 ErrMin= 1.26D-04
 ErrMax= 1.26D-04  0.00D+00 EMaxC= 1.00D-01 BMatC= 3.97D-06 BMatP= 8.32D-04
 IDIUse=3 WtCom= 9.99D-01 WtEn= 1.26D-03
 Coeff-Com:  0.295D-02-0.714D-02-0.111D-01 0.396D-01 0.976D+00
 Coeff-En:   0.000D+00 0.000D+00 0.000D+00 0.000D+00 0.100D+01
 Coeff:      0.295D-02-0.713D-02-0.111D-01 0.395D-01 0.976D+00
 Gap=     0.317 Goal=   None    Shift=    0.000
 RMSDP=1.38D-05 MaxDP=9.33D-04 DE=-6.33D-04 OVMax= 4.10D-04

 Cycle   6  Pass 1  IDiag  1:
 RMSU=  4.80D-06    CP:  5.66D-01  1.84D+00  9.07D-01  6.99D-01  1.12D+00
 CoulSu:  requested number of processors reduced to:  16 ShMem   1 Linda.
 CalDSu:  requested number of processors reduced to:  38 ShMem   1 Linda.
 E= -386.928484901168     Delta-E=       -0.000003286223 Rises=F Damp=F
 DIIS: error= 3.92D-05 at cycle   6 NSaved=   6.
 NSaved= 6 IEnMin= 6 EnMin= -386.928484901168     IErMin= 6 ErrMin= 3.92D-05
 ErrMax= 3.92D-05  0.00D+00 EMaxC= 1.00D-01 BMatC= 2.53D-07 BMatP= 3.97D-06
 IDIUse=1 WtCom= 1.00D+00 WtEn= 0.00D+00
 Coeff-Com:  0.167D-02-0.391D-02-0.109D-01-0.188D-01 0.246D+00 0.786D+00
 Coeff:      0.167D-02-0.391D-02-0.109D-01-0.188D-01 0.246D+00 0.786D+00
 Gap=     0.317 Goal=   None    Shift=    0.000
 DSYEVD-2 returned Info=        1887 IAlg= 4 N=   943 NDim=   943 NE2=      106756 trying  DSYEV.
 RMSDP=1.79D-06 MaxDP=6.42D-05 DE=-3.29D-06 OVMax= 1.01D-04

 Cycle   7  Pass 1  IDiag  1:
 RMSU=  1.27D-06    CP:  5.66D-01  1.84D+00  9.07D-01  7.00D-01  1.11D+00
                    CP:  1.14D+00
 CoulSu:  requested number of processors reduced to:  16 ShMem   1 Linda.
 CalDSu:  requested number of processors reduced to:  38 ShMem   1 Linda.
 E= -386.928485139463     Delta-E=       -0.000000238296 Rises=F Damp=F
 DIIS: error= 4.89D-06 at cycle   7 NSaved=   7.
 NSaved= 7 IEnMin= 7 EnMin= -386.928485139463     IErMin= 7 ErrMin= 4.89D-06
 ErrMax= 4.89D-06  0.00D+00 EMaxC= 1.00D-01 BMatC= 6.26D-09 BMatP= 2.53D-07
 IDIUse=1 WtCom= 1.00D+00 WtEn= 0.00D+00
 Coeff-Com: -0.196D-03 0.390D-03 0.692D-03-0.107D-02-0.441D-01 0.415D-01
 Coeff-Com:  0.100D+01
 Coeff:     -0.196D-03 0.390D-03 0.692D-03-0.107D-02-0.441D-01 0.415D-01
 Coeff:      0.100D+01
 Gap=     0.317 Goal=   None    Shift=    0.000
 DSYEVD-2 returned Info=      446511 IAlg= 4 N=   943 NDim=   943 NE2=      106756 trying  DSYEV.
 RMSDP=1.17D-06 MaxDP=8.01D-05 DE=-2.38D-07 OVMax= 2.43D-05

 Cycle   8  Pass 1  IDiag  1:
 RMSU=  3.79D-07    CP:  5.66D-01  1.84D+00  9.08D-01  7.01D-01  1.10D+00
                    CP:  1.18D+00  1.27D+00
 CoulSu:  requested number of processors reduced to:  16 ShMem   1 Linda.
 CalDSu:  requested number of processors reduced to:  38 ShMem   1 Linda.
 E= -386.928485147044     Delta-E=       -0.000000007581 Rises=F Damp=F
 DIIS: error= 3.43D-07 at cycle   8 NSaved=   8.
 NSaved= 8 IEnMin= 8 EnMin= -386.928485147044     IErMin= 8 ErrMin= 3.43D-07
 ErrMax= 3.43D-07  0.00D+00 EMaxC= 1.00D-01 BMatC= 5.34D-11 BMatP= 6.26D-09
 IDIUse=1 WtCom= 1.00D+00 WtEn= 0.00D+00
 Coeff-Com: -0.216D-04 0.520D-04 0.696D-04-0.156D-03-0.286D-02-0.110D-01
 Coeff-Com: -0.117D-01 0.103D+01
 Coeff:     -0.216D-04 0.520D-04 0.696D-04-0.156D-03-0.286D-02-0.110D-01
 Coeff:     -0.117D-01 0.103D+01
 Gap=     0.317 Goal=   None    Shift=    0.000
 DSYEVD-2 returned Info=      446511 IAlg= 4 N=   943 NDim=   943 NE2=      106756 trying  DSYEV.
 RMSDP=1.26D-07 MaxDP=8.83D-06 DE=-7.58D-09 OVMax= 3.15D-06

 Cycle   9  Pass 1  IDiag  1:
 RMSU=  4.61D-08    CP:  5.66D-01  1.84D+00  9.08D-01  7.01D-01  1.10D+00
                    CP:  1.18D+00  1.29D+00  1.04D+00
 CoulSu:  requested number of processors reduced to:  16 ShMem   1 Linda.
 CalDSu:  requested number of processors reduced to:  38 ShMem   1 Linda.
 E= -386.928485147215     Delta-E=       -0.000000000171 Rises=F Damp=F
 DIIS: error= 6.20D-08 at cycle   9 NSaved=   9.
 NSaved= 9 IEnMin= 9 EnMin= -386.928485147215     IErMin= 9 ErrMin= 6.20D-08
 ErrMax= 6.20D-08  0.00D+00 EMaxC= 1.00D-01 BMatC= 1.05D-12 BMatP= 5.34D-11
 IDIUse=1 WtCom= 1.00D+00 WtEn= 0.00D+00
 Coeff-Com:  0.167D-05-0.329D-05-0.913D-05-0.172D-04 0.466D-03 0.139D-03
 Coeff-Com: -0.811D-02-0.979D-01 0.111D+01
 Coeff:      0.167D-05-0.329D-05-0.913D-05-0.172D-04 0.466D-03 0.139D-03
 Coeff:     -0.811D-02-0.979D-01 0.111D+01
 Gap=     0.317 Goal=   None    Shift=    0.000
 DSYEVD-2 returned Info=      669295 IAlg= 4 N=   943 NDim=   943 NE2=      106756 trying  DSYEV.
 RMSDP=1.91D-08 MaxDP=1.32D-06 DE=-1.71D-10 OVMax= 5.94D-07

 Cycle  10  Pass 1  IDiag  1:
 RMSU=  7.55D-09    CP:  5.66D-01  1.84D+00  9.08D-01  7.00D-01  1.10D+00
                    CP:  1.18D+00  1.29D+00  1.04D+00  1.23D+00
 CoulSu:  requested number of processors reduced to:  16 ShMem   1 Linda.
 CalDSu:  requested number of processors reduced to:  38 ShMem   1 Linda.
 E= -386.928485147144     Delta-E=        0.000000000071 Rises=F Damp=F
 DIIS: error= 1.17D-08 at cycle  10 NSaved=  10.
 NSaved=10 IEnMin= 9 EnMin= -386.928485147215     IErMin=10 ErrMin= 1.17D-08
 ErrMax= 1.17D-08  0.00D+00 EMaxC= 1.00D-01 BMatC= 2.50D-14 BMatP= 1.05D-12
 IDIUse=1 WtCom= 1.00D+00 WtEn= 0.00D+00
 Coeff-Com:  0.262D-06-0.628D-06 0.392D-06 0.524D-05 0.230D-04 0.104D-03
 Coeff-Com:  0.868D-03-0.549D-02-0.929D-01 0.110D+01
 Coeff:      0.262D-06-0.628D-06 0.392D-06 0.524D-05 0.230D-04 0.104D-03
 Coeff:      0.868D-03-0.549D-02-0.929D-01 0.110D+01
 Gap=     0.317 Goal=   None    Shift=    0.000
 DSYEVD-2 returned Info=      446511 IAlg= 4 N=   943 NDim=   943 NE2=      106756 trying  DSYEV.
 RMSDP=1.44D-09 MaxDP=6.97D-08 DE= 7.07D-11 OVMax= 7.40D-08

 SCF Done:  E(RM062X) =  -386.928485147     A.U. after   10 cycles
            NFock= 10  Conv=0.14D-08     -V/T= 2.0048
 KE= 3.850855529181D+02 PE=-1.980604217923D+03 EE= 6.671344794367D+02
 Leave Link  502 at Sat Apr 17 11:46:50 2021, MaxMem=   104857600 cpu:           99253.5 elap:            2214.1
 (Enter /s/ls4/users/knvvv/bin/g16sse/l601.exe)
 Copying SCF densities to generalized density rwf, IOpCl= 0 IROHF=0.

 **********************************************************************

            Population analysis using the SCF density.

 **********************************************************************

 Orbital symmetries:
       Occupied  (A1') (E1') (E1') (A2") (E1") (E1") (E2') (E2')
                 (E2") (E2") (A1') (E1') (E1') (A2") (E1") (E1")
                 (E2') (E2') (A1') (E2") (E2") (E1') (E1') (A1')
                 (A2") (E2') (E2') (E1') (E1') (E1") (E1") (E2")
                 (E2") (E2') (E2')
       Virtual   (A1') (A2") (E1') (E1') (E2') (E2') (E1") (E1")
                 (E2") (E2") (A1') (A2") (E1') (E1') (E2') (E2')
                 (E1') (E1') (A1') (A2") (E1") (E1") (E2') (E2')
                 (E2") (E2") (E1') (E1') (E2') (E2') (A1') (E1")
                 (E1") (E1") (E1") (E2") (E2") (E1') (E1') (A2')
                 (E2") (E2") (E1") (E1") (A2") (E2') (E2') (A2")
                 (E1') (E1') (A1') (A1") (A1') (E2') (E2') (E1')
                 (E1') (A2") (E1") (E1") (A1') (E2") (E2") (A2')
                 (E2') (E2') (E1") (E1") (E2') (E2') (A2") (E1')
                 (E1') (E2") (E2") (E1') (E1') (E2") (E2") (E1")
                 (E1") (E1') (E1') (E2') (E2') (A1') (E2") (E2")
                 (A1') (A1") (E1") (E1") (E2') (E2') (E2") (E2")
                 (A2') (E1') (E1') (E1") (E1") (E2') (E2') (A2")
                 (E2') (E2') (E1") (E1") (E1') (E1') (A2") (E2")
                 (E2") (A1') (A1") (E1") (E1") (A2") (E2') (E2')
                 (E2") (E2") (E1') (E1') (A2') (E2") (E2") (A1")
                 (E1') (E1') (E1") (E1") (E2') (E2') (E1') (E1')
                 (A1') (A2") (E2') (E2') (E1") (E1") (E2") (E2")
                 (A1') (E1") (E1") (E2') (E2') (E2") (E2") (A2")
                 (E1') (E1') (E1') (E1') (A1') (A2") (A1') (E2')
                 (E2') (E1") (E1") (E1') (E1') (A1') (A1") (E2")
                 (E2") (E2') (E2') (A2') (E1") (E1") (E2") (E2")
                 (E1') (E1') (A2") (E2") (E2") (E2") (E2") (A2')
                 (E1") (E1") (E1') (E1') (A1') (E2') (E2') (A2")
                 (E1') (E1') (E1") (E1") (E2') (E2') (A1') (E2')
                 (E2') (E1") (E1") (E2') (E2') (E2") (E2") (E1')
                 (E1') (E1") (E1") (A2") (A2") (E1') (E1') (E2")
                 (E2") (A1") (E2') (E2') (A1') (E1') (E1') (E1")
                 (E1") (E1") (E1") (E2") (E2") (E2') (E2') (A1')
                 (E1') (E1') (E1") (E1") (E2') (E2') (E2") (E2")
                 (A2") (E1') (E1') (A2') (E2") (E2") (A1") (E1")
                 (E1") (A2") (A2') (A1') (E2") (E2") (E2') (E2')
                 (E1') (E1') (A1') (A1") (E1') (E1') (A2") (E2')
                 (E2') (E2") (E2") (E1") (E1") (E1') (E1') (E2')
                 (E2') (A2") (E2') (E2') (E1") (E1") (E1') (E1')
                 (E2") (E2") (A1') (E2') (E2') (E2") (E2") (A2')
                 (E1") (E1") (A1') (E2") (E2") (E1") (E1") (E1')
                 (E1') (E2') (E2') (E2') (E2') (A2") (E2') (E2')
                 (E1') (E1') (A1') (A1") (E2") (E2") (E1') (E1')
                 (E1") (E1") (E2") (E2") (A1') (E2') (E2') (E1")
                 (E1") (A2") (E1') (E1') (E1') (E1') (E2') (E2')
                 (E1") (E1") (A1') (A2") (E1') (E1') (E1") (E1")
                 (A2') (E1') (E1') (E2") (E2") (E2") (E2") (E1")
                 (E1") (A2") (E2') (E2') (E2') (E2') (E1") (E1")
                 (A1') (E2") (E2") (A2') (A2") (E1') (E1') (A2")
                 (E2") (E2") (E2') (E2') (A1') (E1') (E1') (A2')
                 (E1") (E1") (E1') (E1') (E2') (E2') (E2") (E2")
                 (A1") (E2") (E2") (E1") (E1") (A1') (E1') (E1')
                 (A1") (E1") (E1") (E2") (E2") (A1') (E2') (E2')
                 (E2') (E2') (E1') (E1') (A2") (E1') (E1') (E2')
                 (E2') (E1") (E1") (E1") (E1") (A2') (E2") (E2")
                 (A1") (A1') (E2') (E2') (A2') (E2") (E2") (A2")
                 (A1") (E1') (E1') (A1') (E1") (E1") (E2") (E2")
                 (E2') (E2') (E1') (E1') (E1") (E1") (E2") (E2")
                 (E2') (E2') (E2") (E2") (A1') (E1") (E1") (A2")
                 (E1") (E1") (E1') (E1') (A2") (E2') (E2') (E2")
                 (E2") (E1") (E1") (A1") (E2") (E2") (E2') (E2')
                 (E1') (E1') (A2') (A2") (A1") (E1") (E1") (E2')
                 (E2') (E1') (E1') (E2') (E2') (A2") (E1') (E1')
                 (E2") (E2") (A1') (A2') (E1') (E1') (E2") (E2")
                 (E1") (E1") (E2") (E2") (E1") (E1") (E2') (E2')
                 (E2") (E2") (E1") (E1") (A2") (E2') (E2') (A1')
                 (A2') (E1") (E1") (E2") (E2") (E2') (E2') (E1')
                 (E1') (A1") (A1') (E2') (E2') (A1") (E1') (E1')
                 (A1') (E1') (E1') (E1") (E1") (E2") (E2") (E2')
                 (E2') (A2") (E2") (E2") (A2") (E1") (E1") (E1')
                 (E1') (A1') (E1') (E1') (A1') (E2') (E2') (A2')
                 (E1') (E1') (E2") (E2") (E2') (E2') (A2") (E1')
                 (E1') (E1") (E1") (E1') (E1') (E2") (E2") (E2')
                 (E2') (E1") (E1") (A2") (E2") (E2") (E2') (E2')
                 (A2') (A1') (E1') (E1') (E1") (E1") (A1") (A2")
                 (A1') (E2') (E2') (E1') (E1') (E2') (E2') (E2")
                 (E2") (A2") (E1") (E1") (A1') (E1') (E1') (A1')
                 (E2") (E2") (A2') (E1") (E1") (E1') (E1') (E1")
                 (E1") (E2") (E2") (A1") (E2') (E2') (E1") (E1")
                 (E2') (E2') (A2") (E2") (E2") (A2') (E2') (E2')
                 (E1") (E1") (E1') (E1') (A2") (E1') (E1') (E2")
                 (E2") (E1') (E1') (E1") (E1") (E2') (E2') (E2')
                 (E2') (A1") (E2") (E2") (E1") (E1") (E1') (E1')
                 (A2') (E1") (E1") (A1') (A2") (E2") (E2") (E1')
                 (E1') (E1") (E1") (A1") (A1') (E2") (E2") (E2')
                 (E2') (A2") (E2') (E2') (A1') (A2') (E2') (E2')
                 (A1") (E2") (E2") (E1") (E1") (E1') (E1') (E2")
                 (E2") (E1") (E1") (E1') (E1') (E2') (E2') (A1')
                 (A2") (E1") (E1") (E2") (E2") (E1') (E1') (E2')
                 (E2') (E1') (E1') (A2') (A1") (E2") (E2") (E1')
                 (E1') (E1") (E1") (E2') (E2') (A2") (A2') (E1")
                 (E1") (E2") (E2") (E2") (E2") (E2") (E2") (E2')
                 (E2') (E1') (E1') (A1') (A2") (E1") (E1") (E1')
                 (E1') (E2') (E2') (A1") (E2") (E2") (E1") (E1")
                 (A1') (E2') (E2') (A2") (E1') (E1') (A2') (E2")
                 (E2") (E1") (E1") (E1') (E1') (A2") (A1') (E1")
                 (E1") (E2") (E2") (E2') (E2') (E1') (E1') (E2')
                 (E2') (E1") (E1") (E2') (E2') (E2") (E2") (A1")
                 (E1") (E1") (A1') (A1") (E2') (E2') (A2') (E2")
                 (E2") (E1') (E1') (E1") (E1") (A1') (A2') (E2')
                 (E2') (E1') (E1') (A2") (E2") (E2") (E1") (E1")
                 (E2') (E2') (E1') (E1') (E2") (E2") (A1") (E1")
                 (E1") (A1') (E2") (E2") (A2") (E1") (E1") (A2')
                 (A2") (E1') (E1') (A1") (E1') (E1') (E1") (E1")
                 (E2") (E2") (E2') (E2') (A1") (A1') (E2') (E2')
                 (E2") (E2") (E1') (E1') (A2") (E2") (E2") (E2')
                 (E2') (E1') (E1') (A2') (E1") (E1") (E2') (E2')
                 (E2") (E2") (E1") (E1") (E1") (E1") (A1") (A2')
                 (E2") (E2") (E2") (E2") (E1") (E1") (E1') (E1')
                 (A2") (E1") (E1") (E2') (E2') (E2") (E2") (A1')
                 (E1') (E1') (A1') (A1") (E2') (E2') (A2") (E2")
                 (E2") (E1') (E1') (E2') (E2') (E1") (E1") (E1')
                 (E1') (A2") (E2') (E2') (E1") (E1") (E2") (E2")
                 (E1") (E1") (A2') (E2") (E2") (A1") (A1') (A2")
                 (E1') (E1') (E1") (E1") (E2') (E2') (E2") (E2")
                 (A1') (E1') (E1') (A2") (E1") (E1") (E2") (E2")
                 (E2') (E2') (A1') (E1') (E1') (A2") (E1") (E1")
                 (E2") (E2") (E2') (E2')
 The electronic state is 1-A1'.
 Alpha  occ. eigenvalues --  -10.53563 -10.53542 -10.53542 -10.53533 -10.53512
 Alpha  occ. eigenvalues --  -10.53512 -10.53505 -10.53505 -10.53474 -10.53474
 Alpha  occ. eigenvalues --   -1.03720  -0.88769  -0.88769  -0.80542  -0.68785
 Alpha  occ. eigenvalues --   -0.68785  -0.68657  -0.68657  -0.61333  -0.55055
 Alpha  occ. eigenvalues --   -0.55055  -0.52176  -0.52176  -0.49987  -0.48249
 Alpha  occ. eigenvalues --   -0.47315  -0.47315  -0.35497  -0.35497  -0.34883
 Alpha  occ. eigenvalues --   -0.34883  -0.32955  -0.32955  -0.30571  -0.30571
 Alpha virt. eigenvalues --    0.01147   0.01680   0.02709   0.02709   0.04631
 Alpha virt. eigenvalues --    0.04631   0.04995   0.04995   0.07953   0.07953
 Alpha virt. eigenvalues --    0.08573   0.08817   0.10691   0.10691   0.12011
 Alpha virt. eigenvalues --    0.12011   0.14314   0.14314   0.14658   0.15519
 Alpha virt. eigenvalues --    0.15851   0.15851   0.16813   0.16813   0.17199
 Alpha virt. eigenvalues --    0.17199   0.19748   0.19748   0.19804   0.19804
 Alpha virt. eigenvalues --    0.21094   0.21097   0.21097   0.22669   0.22669
 Alpha virt. eigenvalues --    0.23192   0.23192   0.23719   0.23719   0.25162
 Alpha virt. eigenvalues --    0.25182   0.25182   0.25340   0.25340   0.25407
 Alpha virt. eigenvalues --    0.26620   0.26620   0.27530   0.27712   0.27712
 Alpha virt. eigenvalues --    0.27804   0.29443   0.29700   0.31419   0.31419
 Alpha virt. eigenvalues --    0.34180   0.34180   0.34252   0.34586   0.34586
 Alpha virt. eigenvalues --    0.34650   0.35098   0.35098   0.35693   0.35767
 Alpha virt. eigenvalues --    0.35767   0.36567   0.36567   0.36789   0.36789
 Alpha virt. eigenvalues --    0.37810   0.37966   0.37966   0.38566   0.38566
 Alpha virt. eigenvalues --    0.39937   0.39937   0.40457   0.40457   0.40720
 Alpha virt. eigenvalues --    0.40720   0.41215   0.41215   0.42334   0.42334
 Alpha virt. eigenvalues --    0.44876   0.45007   0.45007   0.45901   0.46865
 Alpha virt. eigenvalues --    0.48221   0.48221   0.48649   0.48649   0.48744
 Alpha virt. eigenvalues --    0.48744   0.48923   0.49186   0.49186   0.49269
 Alpha virt. eigenvalues --    0.49269   0.50371   0.50371   0.50484   0.51599
 Alpha virt. eigenvalues --    0.51599   0.53777   0.53777   0.54212   0.54212
 Alpha virt. eigenvalues --    0.54518   0.56373   0.56373   0.58194   0.58439
 Alpha virt. eigenvalues --    0.59244   0.59244   0.59328   0.59377   0.59377
 Alpha virt. eigenvalues --    0.59494   0.59494   0.59870   0.59870   0.61158
 Alpha virt. eigenvalues --    0.62803   0.62803   0.62804   0.63153   0.63153
 Alpha virt. eigenvalues --    0.64030   0.64030   0.65065   0.65065   0.66086
 Alpha virt. eigenvalues --    0.66086   0.66632   0.66927   0.66998   0.66998
 Alpha virt. eigenvalues --    0.69311   0.69311   0.70300   0.70300   0.71441
 Alpha virt. eigenvalues --    0.75490   0.75490   0.80380   0.80380   0.83180
 Alpha virt. eigenvalues --    0.83180   0.83302   0.85199   0.85199   0.89277
 Alpha virt. eigenvalues --    0.89277   0.89531   0.94263   0.94706   0.95618
 Alpha virt. eigenvalues --    0.95618   0.96721   0.96721   0.97734   0.97734
 Alpha virt. eigenvalues --    0.97805   0.98360   0.98794   0.98794   0.99779
 Alpha virt. eigenvalues --    0.99779   1.00197   1.00613   1.00613   1.01080
 Alpha virt. eigenvalues --    1.01080   1.02466   1.02466   1.04320   1.05028
 Alpha virt. eigenvalues --    1.05028   1.07267   1.07267   1.08317   1.09266
 Alpha virt. eigenvalues --    1.09266   1.09821   1.09821   1.10004   1.12322
 Alpha virt. eigenvalues --    1.12322   1.13723   1.14178   1.14178   1.14766
 Alpha virt. eigenvalues --    1.14766   1.15984   1.15984   1.18553   1.18778
 Alpha virt. eigenvalues --    1.18778   1.19386   1.19386   1.21705   1.21705
 Alpha virt. eigenvalues --    1.25156   1.25156   1.25738   1.25738   1.26655
 Alpha virt. eigenvalues --    1.26655   1.30865   1.34046   1.34705   1.34705
 Alpha virt. eigenvalues --    1.36297   1.36297   1.37089   1.38241   1.38241
 Alpha virt. eigenvalues --    1.41658   1.42610   1.42610   1.43711   1.43711
 Alpha virt. eigenvalues --    1.46261   1.46261   1.48073   1.48073   1.49417
 Alpha virt. eigenvalues --    1.49417   1.51723   1.53543   1.53543   1.53827
 Alpha virt. eigenvalues --    1.53827   1.55014   1.55014   1.56031   1.56031
 Alpha virt. eigenvalues --    1.57992   1.58129   1.58129   1.59321   1.59326
 Alpha virt. eigenvalues --    1.59326   1.63310   1.63659   1.63659   1.65746
 Alpha virt. eigenvalues --    1.66729   1.67744   1.73481   1.73481   1.77131
 Alpha virt. eigenvalues --    1.77131   1.78657   1.78657   1.84329   1.84970
 Alpha virt. eigenvalues --    1.85265   1.85265   1.87500   1.87510   1.87510
 Alpha virt. eigenvalues --    1.91223   1.91223   1.92011   1.92011   1.92335
 Alpha virt. eigenvalues --    1.92335   1.97025   1.97025   1.99473   2.00867
 Alpha virt. eigenvalues --    2.00867   2.01130   2.01130   2.02013   2.02013
 Alpha virt. eigenvalues --    2.02407   2.02407   2.02847   2.05867   2.05867
 Alpha virt. eigenvalues --    2.06569   2.06569   2.07480   2.07533   2.07533
 Alpha virt. eigenvalues --    2.09242   2.11936   2.11936   2.15336   2.15336
 Alpha virt. eigenvalues --    2.19668   2.19668   2.23689   2.23689   2.24120
 Alpha virt. eigenvalues --    2.24120   2.27602   2.32165   2.32165   2.33467
 Alpha virt. eigenvalues --    2.33467   2.33496   2.35229   2.35296   2.35296
 Alpha virt. eigenvalues --    2.37170   2.37170   2.38280   2.38280   2.38740
 Alpha virt. eigenvalues --    2.38740   2.40480   2.42266   2.42266   2.43274
 Alpha virt. eigenvalues --    2.43274   2.44367   2.46035   2.46035   2.51490
 Alpha virt. eigenvalues --    2.51490   2.52337   2.52337   2.53089   2.53089
 Alpha virt. eigenvalues --    2.53496   2.57341   2.58876   2.58876   2.60341
 Alpha virt. eigenvalues --    2.60341   2.60607   2.61478   2.61478   2.63015
 Alpha virt. eigenvalues --    2.63015   2.64876   2.64876   2.64997   2.64997
 Alpha virt. eigenvalues --    2.66814   2.68757   2.68757   2.69448   2.69448
 Alpha virt. eigenvalues --    2.70373   2.70373   2.71867   2.72091   2.72091
 Alpha virt. eigenvalues --    2.72531   2.73852   2.75248   2.75248   2.78663
 Alpha virt. eigenvalues --    2.80824   2.80824   2.81125   2.81125   2.83011
 Alpha virt. eigenvalues --    2.84399   2.84399   2.84597   2.85200   2.85200
 Alpha virt. eigenvalues --    2.88394   2.88394   2.88500   2.88500   2.89047
 Alpha virt. eigenvalues --    2.89047   2.89123   2.90605   2.90605   2.91935
 Alpha virt. eigenvalues --    2.91935   2.95021   2.96300   2.96300   2.97689
 Alpha virt. eigenvalues --    2.99108   2.99108   3.02293   3.02293   3.03046
 Alpha virt. eigenvalues --    3.03759   3.03759   3.08221   3.08221   3.08428
 Alpha virt. eigenvalues --    3.08428   3.10604   3.10734   3.10734   3.11786
 Alpha virt. eigenvalues --    3.11786   3.12178   3.12178   3.17760   3.17760
 Alpha virt. eigenvalues --    3.18264   3.19017   3.19017   3.20243   3.22033
 Alpha virt. eigenvalues --    3.23499   3.23499   3.25306   3.25446   3.25446
 Alpha virt. eigenvalues --    3.30373   3.31156   3.31734   3.31734   3.33466
 Alpha virt. eigenvalues --    3.34330   3.34330   3.36572   3.36572   3.40658
 Alpha virt. eigenvalues --    3.40658   3.44074   3.44074   3.45021   3.45021
 Alpha virt. eigenvalues --    3.45792   3.45792   3.47929   3.47929   3.51697
 Alpha virt. eigenvalues --    3.51697   3.52464   3.54086   3.54086   3.54595
 Alpha virt. eigenvalues --    3.56455   3.56455   3.58264   3.58264   3.62893
 Alpha virt. eigenvalues --    3.66445   3.66445   3.71102   3.71102   3.71777
 Alpha virt. eigenvalues --    3.71777   3.72720   3.72886   3.72886   3.76161
 Alpha virt. eigenvalues --    3.76161   3.76816   3.76816   3.80282   3.85961
 Alpha virt. eigenvalues --    3.92674   3.94571   3.94571   3.94961   3.94961
 Alpha virt. eigenvalues --    3.98302   3.98302   4.02453   4.02453   4.06076
 Alpha virt. eigenvalues --    4.07362   4.07362   4.12707   4.12707   4.21108
 Alpha virt. eigenvalues --    4.23276   4.26063   4.26063   4.31375   4.31375
 Alpha virt. eigenvalues --    4.33794   4.33794   4.41770   4.41770   4.45279
 Alpha virt. eigenvalues --    4.45279   4.46064   4.46064   4.48063   4.48063
 Alpha virt. eigenvalues --    4.51156   4.51156   4.53697   4.65106   4.65106
 Alpha virt. eigenvalues --    4.68106   4.68459   4.69641   4.69641   4.76940
 Alpha virt. eigenvalues --    4.76940   4.78474   4.78474   4.79976   4.79976
 Alpha virt. eigenvalues --    4.82460   4.85185   4.86534   4.86534   4.97183
 Alpha virt. eigenvalues --    4.97745   4.97745   5.02282   5.07756   5.07756
 Alpha virt. eigenvalues --    5.10868   5.10868   5.12603   5.12603   5.13383
 Alpha virt. eigenvalues --    5.13383   5.14666   5.27678   5.27678   5.32048
 Alpha virt. eigenvalues --    5.32227   5.32227   5.32608   5.32608   5.34282
 Alpha virt. eigenvalues --    5.35155   5.35155   5.38132   5.45641   5.45641
 Alpha virt. eigenvalues --    5.48406   5.49741   5.49741   5.51168   5.51168
 Alpha virt. eigenvalues --    5.52697   5.52697   5.57968   5.61594   5.61594
 Alpha virt. eigenvalues --    5.65832   5.65832   5.66138   5.66138   5.69997
 Alpha virt. eigenvalues --    5.69997   5.70572   5.70572   5.78598   5.78598
 Alpha virt. eigenvalues --    5.80073   5.81863   5.81863   5.82716   5.82716
 Alpha virt. eigenvalues --    5.85843   5.85890   5.92565   5.92565   5.94184
 Alpha virt. eigenvalues --    5.94184   5.95224   5.95970   5.96524   5.97469
 Alpha virt. eigenvalues --    5.97469   5.97817   5.97817   6.00164   6.00164
 Alpha virt. eigenvalues --    6.00455   6.00455   6.03650   6.04320   6.04320
 Alpha virt. eigenvalues --    6.04561   6.09003   6.09003   6.09370   6.10036
 Alpha virt. eigenvalues --    6.10036   6.11366   6.15886   6.15886   6.16401
 Alpha virt. eigenvalues --    6.16401   6.16917   6.16917   6.17715   6.17715
 Alpha virt. eigenvalues --    6.18892   6.19052   6.19052   6.22803   6.22803
 Alpha virt. eigenvalues --    6.26256   6.26256   6.27126   6.32191   6.32191
 Alpha virt. eigenvalues --    6.33670   6.34145   6.34145   6.34484   6.34484
 Alpha virt. eigenvalues --    6.35329   6.35329   6.38338   6.39581   6.39581
 Alpha virt. eigenvalues --    6.40538   6.40538   6.43966   6.43966   6.45761
 Alpha virt. eigenvalues --    6.45761   6.50360   6.50360   6.52451   6.52451
 Alpha virt. eigenvalues --    6.53591   6.53611   6.53611   6.53742   6.53742
 Alpha virt. eigenvalues --    6.57980   6.57980   6.58983   6.61275   6.61275
 Alpha virt. eigenvalues --    6.62113   6.63234   6.63568   6.63568   6.65303
 Alpha virt. eigenvalues --    6.65303   6.65458   6.65458   6.69640   6.70981
 Alpha virt. eigenvalues --    6.71241   6.71241   6.74041   6.74041   6.76279
 Alpha virt. eigenvalues --    6.78728   6.78728   6.79634   6.80894   6.81084
 Alpha virt. eigenvalues --    6.81084   6.83068   6.83803   6.83803   6.85359
 Alpha virt. eigenvalues --    6.85359   6.85620   6.85620   6.87713   6.87713
 Alpha virt. eigenvalues --    6.88895   6.88895   6.91590   6.91590   6.94665
 Alpha virt. eigenvalues --    6.94665   6.94726   7.02823   7.04779   7.04779
 Alpha virt. eigenvalues --    7.04988   7.04988   7.05108   7.05108   7.07594
 Alpha virt. eigenvalues --    7.07594   7.12457   7.12457   7.16800   7.18550
 Alpha virt. eigenvalues --    7.19181   7.19181   7.22874   7.22874   7.23365
 Alpha virt. eigenvalues --    7.23365   7.26212   7.26212   7.27467   7.31243
 Alpha virt. eigenvalues --    7.31289   7.31289   7.32043   7.32043   7.34534
 Alpha virt. eigenvalues --    7.34534   7.42913   7.42913   7.44369   7.44369
 Alpha virt. eigenvalues --    7.45502   7.45502   7.47223   7.51510   7.54807
 Alpha virt. eigenvalues --    7.54807   7.58480   7.58480   7.62497   7.62497
 Alpha virt. eigenvalues --    7.64885   7.64998   7.64998   7.65853   7.65853
 Alpha virt. eigenvalues --    7.65922   7.67603   7.67603   7.68616   7.73376
 Alpha virt. eigenvalues --    7.73376   7.73608   7.74524   7.74524   7.74547
 Alpha virt. eigenvalues --    7.74547   7.76430   7.76430   7.76949   7.78529
 Alpha virt. eigenvalues --    7.79721   7.79721   7.80457   7.80457   7.80914
 Alpha virt. eigenvalues --    7.80914   7.86553   7.86553   7.87285   7.87285
 Alpha virt. eigenvalues --    7.87715   7.87715   7.94065   7.94065   7.94185
 Alpha virt. eigenvalues --    7.94185   7.98615   8.01540   8.01540   8.02594
 Alpha virt. eigenvalues --    8.02959   8.04432   8.04432   8.11198   8.13076
 Alpha virt. eigenvalues --    8.13076   8.15742   8.15742   8.16546   8.16546
 Alpha virt. eigenvalues --    8.17088   8.17188   8.17604   8.17604   8.19554
 Alpha virt. eigenvalues --    8.19554   8.21818   8.22142   8.22142   8.22202
 Alpha virt. eigenvalues --    8.22202   8.26566   8.26566   8.27282   8.27282
 Alpha virt. eigenvalues --    8.31403   8.31403   8.34615   8.41779   8.41779
 Alpha virt. eigenvalues --    8.42188   8.42876   8.42876   8.53777   8.56848
 Alpha virt. eigenvalues --    8.56848   8.58663   8.59506   8.59670   8.59670
 Alpha virt. eigenvalues --    8.65172   8.65615   8.65615   8.65818   8.65818
 Alpha virt. eigenvalues --    8.65882   8.65882   8.69150   8.69150   8.70975
 Alpha virt. eigenvalues --    8.74232   8.76247   8.76247   8.76390   8.76390
 Alpha virt. eigenvalues --    8.77021   8.77021   8.84422   8.87985   8.87985
 Alpha virt. eigenvalues --    8.91085   8.91085   8.97880   8.97880   9.00424
 Alpha virt. eigenvalues --    9.00842   9.00842   9.00995   9.00995   9.03847
 Alpha virt. eigenvalues --    9.03847   9.06355   9.06355   9.12708   9.12708
 Alpha virt. eigenvalues --    9.13407   9.29321   9.29393   9.29393   9.30119
 Alpha virt. eigenvalues --    9.30119   9.37520   9.37520   9.38680   9.38680
 Alpha virt. eigenvalues --    9.40854   9.49290   9.49290   9.57417   9.57417
 Alpha virt. eigenvalues --    9.59229   9.59229   9.59809   9.64248   9.64248
 Alpha virt. eigenvalues --    9.64831   9.71950   9.72503   9.72503   9.73603
 Alpha virt. eigenvalues --    9.79748   9.79748   9.81820   9.81820   9.84875
 Alpha virt. eigenvalues --    9.84875   9.89728   9.89728   9.92749   9.92749
 Alpha virt. eigenvalues --    9.95161   9.95492   9.95492  10.07257  10.07257
 Alpha virt. eigenvalues --   10.17771  10.17771  10.22515  10.22515  10.23981
 Alpha virt. eigenvalues --   10.40526  10.40526  10.76124  12.67975  12.77925
 Alpha virt. eigenvalues --   12.99354  12.99354  13.18552  13.18552  13.24698
 Alpha virt. eigenvalues --   13.24698  13.34266  13.34266  28.53981  28.85506
 Alpha virt. eigenvalues --   28.85506  28.96681  29.11259  29.11259  29.11932
 Alpha virt. eigenvalues --   29.11932  29.16119  29.16119 146.02552 146.36534
 Alpha virt. eigenvalues --  146.36534 146.50235 146.62955 146.62955 146.66293
 Alpha virt. eigenvalues --  146.66293 146.68761 146.68761
          Condensed to atoms (all electrons):
               1          2          3          4          5          6
     1  C    5.812494   0.250331  -0.003199  -0.003199   0.250331   0.196276
     2  C    0.250331   5.812494   0.250331  -0.003199  -0.003199  -0.132397
     3  C   -0.003199   0.250331   5.812494   0.250331  -0.003199  -0.044009
     4  C   -0.003199  -0.003199   0.250331   5.812494   0.250331  -0.044009
     5  C    0.250331  -0.003199  -0.003199   0.250331   5.812494  -0.132397
     6  C    0.196276  -0.132397  -0.044009  -0.044009  -0.132397   5.812494
     7  C   -0.132397   0.196276  -0.132397  -0.044009  -0.044009   0.250331
     8  C   -0.044009  -0.132397   0.196276  -0.132397  -0.044009  -0.003199
     9  C   -0.044009  -0.044009  -0.132397   0.196276  -0.132397  -0.003199
    10  C   -0.132397  -0.044009  -0.044009  -0.132397   0.196276   0.250331
    11  H   -0.075242  -0.003814   0.001358   0.001358  -0.003814   0.368164
    12  H   -0.003814  -0.075242  -0.003814   0.001358   0.001358  -0.034302
    13  H    0.001358  -0.003814  -0.075242  -0.003814   0.001358   0.000532
    14  H    0.001358   0.001358  -0.003814  -0.075242  -0.003814   0.000532
    15  H   -0.003814   0.001358   0.001358  -0.003814  -0.075242  -0.034302
    16  H   -0.034302   0.000532   0.000532  -0.034302   0.368164  -0.003814
    17  H    0.368164  -0.034302   0.000532   0.000532  -0.034302  -0.075242
    18  H   -0.034302   0.368164  -0.034302   0.000532   0.000532  -0.003814
    19  H    0.000532  -0.034302   0.368164  -0.034302   0.000532   0.001358
    20  H    0.000532   0.000532  -0.034302   0.368164  -0.034302   0.001358
               7          8          9         10         11         12
     1  C   -0.132397  -0.044009  -0.044009  -0.132397  -0.075242  -0.003814
     2  C    0.196276  -0.132397  -0.044009  -0.044009  -0.003814  -0.075242
     3  C   -0.132397   0.196276  -0.132397  -0.044009   0.001358  -0.003814
     4  C   -0.044009  -0.132397   0.196276  -0.132397   0.001358   0.001358
     5  C   -0.044009  -0.044009  -0.132397   0.196276  -0.003814   0.001358
     6  C    0.250331  -0.003199  -0.003199   0.250331   0.368164  -0.034302
     7  C    5.812494   0.250331  -0.003199  -0.003199  -0.034302   0.368164
     8  C    0.250331   5.812494   0.250331  -0.003199   0.000532  -0.034302
     9  C   -0.003199   0.250331   5.812494   0.250331   0.000532   0.000532
    10  C   -0.003199  -0.003199   0.250331   5.812494  -0.034302   0.000532
    11  H   -0.034302   0.000532   0.000532  -0.034302   0.377439   0.008203
    12  H    0.368164  -0.034302   0.000532   0.000532   0.008203   0.377439
    13  H   -0.034302   0.368164  -0.034302   0.000532   0.001672   0.008203
    14  H    0.000532  -0.034302   0.368164  -0.034302   0.001672   0.001672
    15  H    0.000532   0.000532  -0.034302   0.368164   0.008203   0.001672
    16  H    0.001358   0.001358  -0.003814  -0.075242   0.003539   0.000427
    17  H   -0.003814   0.001358   0.001358  -0.003814   0.003718   0.003539
    18  H   -0.075242  -0.003814   0.001358   0.001358   0.003539   0.003718
    19  H   -0.003814  -0.075242  -0.003814   0.001358   0.000427   0.003539
    20  H    0.001358  -0.003814  -0.075242  -0.003814   0.000427   0.000427
              13         14         15         16         17         18
     1  C    0.001358   0.001358  -0.003814  -0.034302   0.368164  -0.034302
     2  C   -0.003814   0.001358   0.001358   0.000532  -0.034302   0.368164
     3  C   -0.075242  -0.003814   0.001358   0.000532   0.000532  -0.034302
     4  C   -0.003814  -0.075242  -0.003814  -0.034302   0.000532   0.000532
     5  C    0.001358  -0.003814  -0.075242   0.368164  -0.034302   0.000532
     6  C    0.000532   0.000532  -0.034302  -0.003814  -0.075242  -0.003814
     7  C   -0.034302   0.000532   0.000532   0.001358  -0.003814  -0.075242
     8  C    0.368164  -0.034302   0.000532   0.001358   0.001358  -0.003814
     9  C   -0.034302   0.368164  -0.034302  -0.003814   0.001358   0.001358
    10  C    0.000532  -0.034302   0.368164  -0.075242  -0.003814   0.001358
    11  H    0.001672   0.001672   0.008203   0.003539   0.003718   0.003539
    12  H    0.008203   0.001672   0.001672   0.000427   0.003539   0.003718
    13  H    0.377439   0.008203   0.001672   0.000427   0.000427   0.003539
    14  H    0.008203   0.377439   0.008203   0.003539   0.000427   0.000427
    15  H    0.001672   0.008203   0.377439   0.003718   0.003539   0.000427
    16  H    0.000427   0.003539   0.003718   0.377439   0.008203   0.001672
    17  H    0.000427   0.000427   0.003539   0.008203   0.377439   0.008203
    18  H    0.003539   0.000427   0.000427   0.001672   0.008203   0.377439
    19  H    0.003718   0.003539   0.000427   0.001672   0.001672   0.008203
    20  H    0.003539   0.003718   0.003539   0.008203   0.001672   0.001672
              19         20
     1  C    0.000532   0.000532
     2  C   -0.034302   0.000532
     3  C    0.368164  -0.034302
     4  C   -0.034302   0.368164
     5  C    0.000532  -0.034302
     6  C    0.001358   0.001358
     7  C   -0.003814   0.001358
     8  C   -0.075242  -0.003814
     9  C   -0.003814  -0.075242
    10  C    0.001358  -0.003814
    11  H    0.000427   0.000427
    12  H    0.003539   0.000427
    13  H    0.003718   0.003539
    14  H    0.003539   0.003718
    15  H    0.000427   0.003539
    16  H    0.001672   0.008203
    17  H    0.001672   0.001672
    18  H    0.008203   0.001672
    19  H    0.377439   0.008203
    20  H    0.008203   0.377439
 Mulliken charges:
               1
     1  C   -0.370691
     2  C   -0.370691
     3  C   -0.370691
     4  C   -0.370691
     5  C   -0.370691
     6  C   -0.370691
     7  C   -0.370691
     8  C   -0.370691
     9  C   -0.370691
    10  C   -0.370691
    11  H    0.370691
    12  H    0.370691
    13  H    0.370691
    14  H    0.370691
    15  H    0.370691
    16  H    0.370691
    17  H    0.370691
    18  H    0.370691
    19  H    0.370691
    20  H    0.370691
 Sum of Mulliken charges =   0.00000
 Mulliken charges with hydrogens summed into heavy atoms:
               1
     1  C    0.000000
     2  C    0.000000
     3  C    0.000000
     4  C    0.000000
     5  C    0.000000
     6  C    0.000000
     7  C    0.000000
     8  C    0.000000
     9  C    0.000000
    10  C    0.000000
 Electronic spatial extent (au):  <R**2>=            882.3931
 Charge=              0.0000 electrons
 Dipole moment (field-independent basis, Debye):
    X=              0.0000    Y=             -0.0000    Z=              0.0000  Tot=              0.0000
 Quadrupole moment (field-independent basis, Debye-Ang):
   XX=            -58.2203   YY=            -58.2203   ZZ=            -58.8401
   XY=             -0.0000   XZ=             -0.0000   YZ=              0.0000
 Traceless Quadrupole moment (field-independent basis, Debye-Ang):
   XX=              0.2066   YY=              0.2066   ZZ=             -0.4132
   XY=             -0.0000   XZ=             -0.0000   YZ=              0.0000
 Octapole moment (field-independent basis, Debye-Ang**2):
  XXX=             -0.0000  YYY=              0.0000  ZZZ=              0.0000  XYY=             -0.0000
  XXY=              0.0000  XXZ=             -0.0000  XZZ=              0.0000  YZZ=              0.0000
  YYZ=             -0.0000  XYZ=             -0.0000
 Hexadecapole moment (field-independent basis, Debye-Ang**3):
 XXXX=           -444.4004 YYYY=           -444.4004 ZZZZ=           -345.8261 XXXY=             -0.0000
 XXXZ=             -0.0000 YYYX=             -0.0000 YYYZ=              0.0000 ZZZX=              0.0000
 ZZZY=              0.0000 XXYY=           -148.1335 XXZZ=           -123.7813 YYZZ=           -123.7813
 XXYZ=              0.0000 YYXZ=             -0.0000 ZZXY=             -0.0000
 N-N= 5.414557004208D+02 E-N=-1.980604220230D+03  KE= 3.850855529181D+02
 PrsmSu:  requested number of processors reduced to:  18 ShMem   1 Linda.
 No NMR shielding tensors so no spin-rotation constants.
 Leave Link  601 at Sat Apr 17 11:47:52 2021, MaxMem=   104857600 cpu:            2859.7 elap:              61.2
 (Enter /s/ls4/users/knvvv/bin/g16sse/l801.exe)
 DoSCS=F DFT=T ScalE2(SS,OS)=  1.000000  1.000000
 Range of M.O.s used for correlation:     1   943
 NBasis=   960 NAE=    35 NBE=    35 NFC=     0 NFV=     0
 NROrb=    943 NOA=    35 NOB=    35 NVA=   908 NVB=   908

 **** Warning!!: The largest alpha MO coefficient is  0.11198036D+03

 Leave Link  801 at Sat Apr 17 11:47:52 2021, MaxMem=   104857600 cpu:               6.2 elap:               0.2
 (Enter /s/ls4/users/knvvv/bin/g16sse/l914.exe)
 RHF ground state
 Doing stability rather than CIS.
 Two-electron integrals replicated using symmetry.
 MDV=   104857600 DFT=T DoStab=T Mixed=T DoRPA=F DoScal=F NonHer=F
 Making orbital integer symmetry assigments:
 Orbital symmetries:
       Occupied  (A1') (E1') (E1') (A2") (E1") (E1") (E2') (E2')
                 (E2") (E2") (A1') (E1') (E1') (A2") (E1") (E1")
                 (E2') (E2') (A1') (E2") (E2") (E1') (E1') (A1')
                 (A2") (E2') (E2') (E1') (E1') (E1") (E1") (E2")
                 (E2") (E2') (E2')
       Virtual   (A1') (A2") (E1') (E1') (E2') (E2') (E1") (E1")
                 (E2") (E2") (A1') (A2") (E1') (E1') (E2') (E2')
                 (E1') (E1') (A1') (A2") (E1") (E1") (E2') (E2')
                 (E2") (E2") (E1') (E1') (E2') (E2') (A1') (E1")
                 (E1") (E1") (E1") (E2") (E2") (E1') (E1') (A2')
                 (E2") (E2") (E1") (E1") (A2") (E2') (E2') (A2")
                 (E1') (E1') (A1') (A1") (A1') (E2') (E2') (E1')
                 (E1') (A2") (E1") (E1") (A1') (E2") (E2") (A2')
                 (E2') (E2') (E1") (E1") (E2') (E2') (A2") (E1')
                 (E1') (E2") (E2") (E1') (E1') (E2") (E2") (E1")
                 (E1") (E1') (E1') (E2') (E2') (A1') (E2") (E2")
                 (A1') (A1") (E1") (E1") (E2') (E2') (E2") (E2")
                 (A2') (E1') (E1') (E1") (E1") (E2') (E2') (A2")
                 (E2') (E2') (E1") (E1") (E1') (E1') (A2") (E2")
                 (E2") (A1') (A1") (E1") (E1") (A2") (E2') (E2')
                 (E2") (E2") (E1') (E1') (A2') (E2") (E2") (A1")
                 (E1') (E1') (E1") (E1") (E2') (E2') (E1') (E1')
                 (A1') (A2") (E2') (E2') (E1") (E1") (E2") (E2")
                 (A1') (E1") (E1") (E2') (E2') (E2") (E2") (A2")
                 (E1') (E1') (E1') (E1') (A1') (A2") (A1') (E2')
                 (E2') (E1") (E1") (E1') (E1') (A1') (A1") (E2")
                 (E2") (E2') (E2') (A2') (E1") (E1") (E2") (E2")
                 (E1') (E1') (A2") (E2") (E2") (E2") (E2") (A2')
                 (E1") (E1") (E1') (E1') (A1') (E2') (E2') (A2")
                 (E1') (E1') (E1") (E1") (E2') (E2') (A1') (E2')
                 (E2') (E1") (E1") (E2') (E2') (E2") (E2") (E1')
                 (E1') (E1") (E1") (A2") (A2") (E1') (E1') (E2")
                 (E2") (A1") (E2') (E2') (A1') (E1') (E1') (E1")
                 (E1") (E1") (E1") (E2") (E2") (E2') (E2') (A1')
                 (E1') (E1') (E1") (E1") (E2') (E2') (E2") (E2")
                 (A2") (E1') (E1') (A2') (E2") (E2") (A1") (E1")
                 (E1") (A2") (A2') (A1') (E2") (E2") (E2') (E2')
                 (E1') (E1') (A1') (A1") (E1') (E1') (A2") (E2')
                 (E2') (E2") (E2") (E1") (E1") (E1') (E1') (E2')
                 (E2') (A2") (E2') (E2') (E1") (E1") (E1') (E1')
                 (E2") (E2") (A1') (E2') (E2') (E2") (E2") (A2')
                 (E1") (E1") (A1') (E2") (E2") (E1") (E1") (E1')
                 (E1') (E2') (E2') (E2') (E2') (A2") (E2') (E2')
                 (E1') (E1') (A1') (A1") (E2") (E2") (E1') (E1')
                 (E1") (E1") (E2") (E2") (A1') (E2') (E2') (E1")
                 (E1") (A2") (E1') (E1') (E1') (E1') (E2') (E2')
                 (E1") (E1") (A1') (A2") (E1') (E1') (E1") (E1")
                 (A2') (E1') (E1') (E2") (E2") (E2") (E2") (E1")
                 (E1") (A2") (E2') (E2') (E2') (E2') (E1") (E1")
                 (A1') (E2") (E2") (A2') (A2") (E1') (E1') (A2")
                 (E2") (E2") (E2') (E2') (A1') (E1') (E1') (A2')
                 (E1") (E1") (E1') (E1') (E2') (E2') (E2") (E2")
                 (A1") (E2") (E2") (E1") (E1") (A1') (E1') (E1')
                 (A1") (E1") (E1") (E2") (E2") (A1') (E2') (E2')
                 (E2') (E2') (E1') (E1') (A2") (E1') (E1') (E2')
                 (E2') (E1") (E1") (E1") (E1") (A2') (E2") (E2")
                 (A1") (A1') (E2') (E2') (A2') (E2") (E2") (A2")
                 (A1") (E1') (E1') (A1') (E1") (E1") (E2") (E2")
                 (E2') (E2') (E1') (E1') (E1") (E1") (E2") (E2")
                 (E2') (E2') (E2") (E2") (A1') (E1") (E1") (A2")
                 (E1") (E1") (E1') (E1') (A2") (E2') (E2') (E2")
                 (E2") (E1") (E1") (A1") (E2") (E2") (E2') (E2')
                 (E1') (E1') (A2') (A2") (A1") (E1") (E1") (E2')
                 (E2') (E1') (E1') (E2') (E2') (A2") (E1') (E1')
                 (E2") (E2") (A1') (A2') (E1') (E1') (E2") (E2")
                 (E1") (E1") (E2") (E2") (E1") (E1") (E2') (E2')
                 (E2") (E2") (E1") (E1") (A2") (E2') (E2') (A1')
                 (A2') (E1") (E1") (E2") (E2") (E2') (E2') (E1')
                 (E1') (A1") (A1') (E2') (E2') (A1") (E1') (E1')
                 (A1') (E1') (E1') (E1") (E1") (E2") (E2") (E2')
                 (E2') (A2") (E2") (E2") (A2") (E1") (E1") (E1')
                 (E1') (A1') (E1') (E1') (A1') (E2') (E2') (A2')
                 (E1') (E1') (E2") (E2") (E2') (E2') (A2") (E1')
                 (E1') (E1") (E1") (E1') (E1') (E2") (E2") (E2')
                 (E2') (E1") (E1") (A2") (E2") (E2") (E2') (E2')
                 (A2') (A1') (E1') (E1') (E1") (E1") (A1") (A2")
                 (A1') (E2') (E2') (E1') (E1') (E2') (E2') (E2")
                 (E2") (A2") (E1") (E1") (A1') (E1') (E1') (A1')
                 (E2") (E2") (A2') (E1") (E1") (E1') (E1') (E1")
                 (E1") (E2") (E2") (A1") (E2') (E2') (E1") (E1")
                 (E2') (E2') (A2") (E2") (E2") (A2') (E2') (E2')
                 (E1") (E1") (E1') (E1') (A2") (E1') (E1') (E2")
                 (E2") (E1') (E1') (E1") (E1") (E2') (E2') (E2')
                 (E2') (A1") (E2") (E2") (E1") (E1") (E1') (E1')
                 (A2') (E1") (E1") (A1') (A2") (E2") (E2") (E1')
                 (E1') (E1") (E1") (A1") (A1') (E2") (E2") (E2')
                 (E2') (A2") (E2') (E2') (A1') (A2') (E2') (E2')
                 (A1") (E2") (E2") (E1") (E1") (E1') (E1') (E2")
                 (E2") (E1") (E1") (E1') (E1') (E2') (E2') (A1')
                 (A2") (E1") (E1") (E2") (E2") (E1') (E1') (E2')
[...]
 Alpha virt. eigenvalues --    1.66729   1.67744   1.73481   1.73481   1.77131
 Alpha virt. eigenvalues --    1.77131   1.78657   1.78657   1.84329   1.84970
 Alpha virt. eigenvalues --    1.85265   1.85265   1.87500   1.87510   1.87510
 Alpha virt. eigenvalues --    1.91223   1.91223   1.92011   1.92011   1.92335
 Alpha virt. eigenvalues --    1.92335   1.97025   1.97025   1.99473   2.00867
 Alpha virt. eigenvalues --    2.00867   2.01130   2.01130   2.02013   2.02013
 Alpha virt. eigenvalues --    2.02407   2.02407   2.02847   2.05867   2.05867
 Alpha virt. eigenvalues --    2.06569   2.06569   2.07480   2.07533   2.07533
 Alpha virt. eigenvalues --    2.09242   2.11936   2.11936   2.15336   2.15336
 Alpha virt. eigenvalues --    2.19668   2.19668   2.23689   2.23689   2.24120
 Alpha virt. eigenvalues --    2.24120   2.27602   2.32165   2.32165   2.33467
 Alpha virt. eigenvalues --    2.33467   2.33496   2.35229   2.35296   2.35296
 Alpha virt. eigenvalues --    2.37170   2.37170   2.38280   2.38280   2.38740
 Alpha virt. eigenvalues --    2.38740   2.40480   2.42266   2.42266   2.43274
 Alpha virt. eigenvalues --    2.43274   2.44367   2.46035   2.46035   2.51490
 Alpha virt. eigenvalues --    2.51490   2.52337   2.52337   2.53089   2.53089
 Alpha virt. eigenvalues --    2.53496   2.57341   2.58876   2.58876   2.60341
 Alpha virt. eigenvalues --    2.60341   2.60607   2.61478   2.61478   2.63015
 Alpha virt. eigenvalues --    2.63015   2.64876   2.64876   2.64997   2.64997
 Alpha virt. eigenvalues --    2.66814   2.68757   2.68757   2.69448   2.69448
 Alpha virt. eigenvalues --    2.70373   2.70373   2.71867   2.72091   2.72091
 Alpha virt. eigenvalues --    2.72531   2.73852   2.75248   2.75248   2.78663
 Alpha virt. eigenvalues --    2.80824   2.80824   2.81125   2.81125   2.83011
 Alpha virt. eigenvalues --    2.84399   2.84399   2.84597   2.85200   2.85200
 Alpha virt. eigenvalues --    2.88394   2.88394   2.88500   2.88500   2.89047
 Alpha virt. eigenvalues --    2.89047   2.89123   2.90605   2.90605   2.91935
 Alpha virt. eigenvalues --    2.91935   2.95021   2.96300   2.96300   2.97689
 Alpha virt. eigenvalues --    2.99108   2.99108   3.02293   3.02293   3.03046
 Alpha virt. eigenvalues --    3.03759   3.03759   3.08221   3.08221   3.08428
 Alpha virt. eigenvalues --    3.08428   3.10604   3.10734   3.10734   3.11786
 Alpha virt. eigenvalues --    3.11786   3.12178   3.12178   3.17760   3.17760
 Alpha virt. eigenvalues --    3.18264   3.19017   3.19017   3.20243   3.22033
 Alpha virt. eigenvalues --    3.23499   3.23499   3.25306   3.25446   3.25446
 Alpha virt. eigenvalues --    3.30373   3.31156   3.31734   3.31734   3.33466
 Alpha virt. eigenvalues --    3.34330   3.34330   3.36572   3.36572   3.40658
 Alpha virt. eigenvalues --    3.40658   3.44074   3.44074   3.45021   3.45021
 Alpha virt. eigenvalues --    3.45792   3.45792   3.47929   3.47929   3.51697
 Alpha virt. eigenvalues --    3.51697   3.52464   3.54086   3.54086   3.54595
 Alpha virt. eigenvalues --    3.56455   3.56455   3.58264   3.58264   3.62893
 Alpha virt. eigenvalues --    3.66445   3.66445   3.71102   3.71102   3.71777
 Alpha virt. eigenvalues --    3.71777   3.72720   3.72886   3.72886   3.76161
 Alpha virt. eigenvalues --    3.76161   3.76816   3.76816   3.80282   3.85961
 Alpha virt. eigenvalues --    3.92674   3.94571   3.94571   3.94961   3.94961
 Alpha virt. eigenvalues --    3.98302   3.98302   4.02453   4.02453   4.06076
 Alpha virt. eigenvalues --    4.07362   4.07362   4.12707   4.12707   4.21108
 Alpha virt. eigenvalues --    4.23276   4.26063   4.26063   4.31375   4.31375
 Alpha virt. eigenvalues --    4.33794   4.33794   4.41770   4.41770   4.45279
 Alpha virt. eigenvalues --    4.45279   4.46064   4.46064   4.48063   4.48063
 Alpha virt. eigenvalues --    4.51156   4.51156   4.53697   4.65106   4.65106
 Alpha virt. eigenvalues --    4.68106   4.68459   4.69641   4.69641   4.76940
 Alpha virt. eigenvalues --    4.76940   4.78474   4.78474   4.79976   4.79976
 Alpha virt. eigenvalues --    4.82460   4.85185   4.86534   4.86534   4.97183
 Alpha virt. eigenvalues --    4.97745   4.97745   5.02282   5.07756   5.07756
 Alpha virt. eigenvalues --    5.10868   5.10868   5.12603   5.12603   5.13383
 Alpha virt. eigenvalues --    5.13383   5.14666   5.27678   5.27678   5.32048
 Alpha virt. eigenvalues --    5.32227   5.32227   5.32608   5.32608   5.34282
 Alpha virt. eigenvalues --    5.35155   5.35155   5.38132   5.45641   5.45641
 Alpha virt. eigenvalues --    5.48406   5.49741   5.49741   5.51168   5.51168
 Alpha virt. eigenvalues --    5.52697   5.52697   5.57968   5.61594   5.61594
 Alpha virt. eigenvalues --    5.65832   5.65832   5.66138   5.66138   5.69997
 Alpha virt. eigenvalues --    5.69997   5.70572   5.70572   5.78598   5.78598
 Alpha virt. eigenvalues --    5.80073   5.81863   5.81863   5.82716   5.82716
 Alpha virt. eigenvalues --    5.85843   5.85890   5.92565   5.92565   5.94184
 Alpha virt. eigenvalues --    5.94184   5.95224   5.95970   5.96524   5.97469
 Alpha virt. eigenvalues --    5.97469   5.97817   5.97817   6.00164   6.00164
 Alpha virt. eigenvalues --    6.00455   6.00455   6.03650   6.04320   6.04320
 Alpha virt. eigenvalues --    6.04561   6.09003   6.09003   6.09370   6.10036
 Alpha virt. eigenvalues --    6.10036   6.11366   6.15886   6.15886   6.16401
 Alpha virt. eigenvalues --    6.16401   6.16917   6.16917   6.17715   6.17715
 Alpha virt. eigenvalues --    6.18892   6.19052   6.19052   6.22803   6.22803
 Alpha virt. eigenvalues --    6.26256   6.26256   6.27126   6.32191   6.32191
 Alpha virt. eigenvalues --    6.33670   6.34145   6.34145   6.34484   6.34484
 Alpha virt. eigenvalues --    6.35329   6.35329   6.38338   6.39581   6.39581
 Alpha virt. eigenvalues --    6.40538   6.40538   6.43966   6.43966   6.45761
 Alpha virt. eigenvalues --    6.45761   6.50360   6.50360   6.52451   6.52451
 Alpha virt. eigenvalues --    6.53591   6.53611   6.53611   6.53742   6.53742
 Alpha virt. eigenvalues --    6.57980   6.57980   6.58983   6.61275   6.61275
 Alpha virt. eigenvalues --    6.62113   6.63234   6.63568   6.63568   6.65303
 Alpha virt. eigenvalues --    6.65303   6.65458   6.65458   6.69640   6.70981
 Alpha virt. eigenvalues --    6.71241   6.71241   6.74041   6.74041   6.76279
 Alpha virt. eigenvalues --    6.78728   6.78728   6.79634   6.80894   6.81084
 Alpha virt. eigenvalues --    6.81084   6.83068   6.83803   6.83803   6.85359
 Alpha virt. eigenvalues --    6.85359   6.85620   6.85620   6.87713   6.87713
 Alpha virt. eigenvalues --    6.88895   6.88895   6.91590   6.91590   6.94665
 Alpha virt. eigenvalues --    6.94665   6.94726   7.02823   7.04779   7.04779
 Alpha virt. eigenvalues --    7.04988   7.04988   7.05108   7.05108   7.07594
 Alpha virt. eigenvalues --    7.07594   7.12457   7.12457   7.16800   7.18550
 Alpha virt. eigenvalues --    7.19181   7.19181   7.22874   7.22874   7.23365
 Alpha virt. eigenvalues --    7.23365   7.26212   7.26212   7.27467   7.31243
 Alpha virt. eigenvalues --    7.31289   7.31289   7.32043   7.32043   7.34534
 Alpha virt. eigenvalues --    7.34534   7.42913   7.42913   7.44369   7.44369
 Alpha virt. eigenvalues --    7.45502   7.45502   7.47223   7.51510   7.54807
 Alpha virt. eigenvalues --    7.54807   7.58480   7.58480   7.62497   7.62497
 Alpha virt. eigenvalues --    7.64885   7.64998   7.64998   7.65853   7.65853
 Alpha virt. eigenvalues --    7.65922   7.67603   7.67603   7.68616   7.73376
 Alpha virt. eigenvalues --    7.73376   7.73608   7.74524   7.74524   7.74547
 Alpha virt. eigenvalues --    7.74547   7.76430   7.76430   7.76949   7.78529
 Alpha virt. eigenvalues --    7.79721   7.79721   7.80457   7.80457   7.80914
 Alpha virt. eigenvalues --    7.80914   7.86553   7.86553   7.87285   7.87285
 Alpha virt. eigenvalues --    7.87715   7.87715   7.94065   7.94065   7.94185
 Alpha virt. eigenvalues --    7.94185   7.98615   8.01540   8.01540   8.02594
 Alpha virt. eigenvalues --    8.02959   8.04432   8.04432   8.11198   8.13076
 Alpha virt. eigenvalues --    8.13076   8.15742   8.15742   8.16546   8.16546
 Alpha virt. eigenvalues --    8.17088   8.17188   8.17604   8.17604   8.19554
 Alpha virt. eigenvalues --    8.19554   8.21818   8.22142   8.22142   8.22202
 Alpha virt. eigenvalues --    8.22202   8.26566   8.26566   8.27282   8.27282
 Alpha virt. eigenvalues --    8.31403   8.31403   8.34615   8.41779   8.41779
 Alpha virt. eigenvalues --    8.42188   8.42876   8.42876   8.53777   8.56848
 Alpha virt. eigenvalues --    8.56848   8.58663   8.59506   8.59670   8.59670
 Alpha virt. eigenvalues --    8.65172   8.65615   8.65615   8.65818   8.65818
 Alpha virt. eigenvalues --    8.65882   8.65882   8.69150   8.69150   8.70975
 Alpha virt. eigenvalues --    8.74232   8.76247   8.76247   8.76390   8.76390
 Alpha virt. eigenvalues --    8.77021   8.77021   8.84422   8.87985   8.87985
 Alpha virt. eigenvalues --    8.91085   8.91085   8.97880   8.97880   9.00424
 Alpha virt. eigenvalues --    9.00842   9.00842   9.00995   9.00995   9.03847
 Alpha virt. eigenvalues --    9.03847   9.06355   9.06355   9.12708   9.12708
 Alpha virt. eigenvalues --    9.13407   9.29321   9.29393   9.29393   9.30119
 Alpha virt. eigenvalues --    9.30119   9.37520   9.37520   9.38680   9.38680
 Alpha virt. eigenvalues --    9.40854   9.49290   9.49290   9.57417   9.57417
 Alpha virt. eigenvalues --    9.59229   9.59229   9.59809   9.64248   9.64248
 Alpha virt. eigenvalues --    9.64831   9.71950   9.72503   9.72503   9.73603
 Alpha virt. eigenvalues --    9.79748   9.79748   9.81820   9.81820   9.84875
 Alpha virt. eigenvalues --    9.84875   9.89728   9.89728   9.92749   9.92749
 Alpha virt. eigenvalues --    9.95161   9.95492   9.95492  10.07257  10.07257
 Alpha virt. eigenvalues --   10.17771  10.17771  10.22515  10.22515  10.23981
 Alpha virt. eigenvalues --   10.40526  10.40526  10.76124  12.67975  12.77925
 Alpha virt. eigenvalues --   12.99354  12.99354  13.18552  13.18552  13.24698
 Alpha virt. eigenvalues --   13.24698  13.34266  13.34266  28.53981  28.85506
 Alpha virt. eigenvalues --   28.85506  28.96681  29.11259  29.11259  29.11932
 Alpha virt. eigenvalues --   29.11932  29.16119  29.16119 146.02552 146.36534
 Alpha virt. eigenvalues --  146.36534 146.50235 146.62955 146.62955 146.66293
 Alpha virt. eigenvalues --  146.66293 146.68761 146.68761
          Condensed to atoms (all electrons):
               1          2          3          4          5          6
     1  C    5.812494   0.250331  -0.003199  -0.003199   0.250331   0.196276
     2  C    0.250331   5.812494   0.250331  -0.003199  -0.003199  -0.132397
     3  C   -0.003199   0.250331   5.812494   0.250331  -0.003199  -0.044009
     4  C   -0.003199  -0.003199   0.250331   5.812494   0.250331  -0.044009
     5  C    0.250331  -0.003199  -0.003199   0.250331   5.812494  -0.132397
     6  C    0.196276  -0.132397  -0.044009  -0.044009  -0.132397   5.812494
     7  C   -0.132397   0.196276  -0.132397  -0.044009  -0.044009   0.250331
     8  C   -0.044009  -0.132397   0.196276  -0.132397  -0.044009  -0.003199
     9  C   -0.044009  -0.044009  -0.132397   0.196276  -0.132397  -0.003199
    10  C   -0.132397  -0.044009  -0.044009  -0.132397   0.196276   0.250331
    11  H   -0.075242  -0.003814   0.001358   0.001358  -0.003814   0.368164
    12  H   -0.003814  -0.075242  -0.003814   0.001358   0.001358  -0.034302
    13  H    0.001358  -0.003814  -0.075242  -0.003814   0.001358   0.000532
    14  H    0.001358   0.001358  -0.003814  -0.075242  -0.003814   0.000532
    15  H   -0.003814   0.001358   0.001358  -0.003814  -0.075242  -0.034302
    16  H   -0.034302   0.000532   0.000532  -0.034302   0.368164  -0.003814
    17  H    0.368164  -0.034302   0.000532   0.000532  -0.034302  -0.075242
    18  H   -0.034302   0.368164  -0.034302   0.000532   0.000532  -0.003814
    19  H    0.000532  -0.034302   0.368164  -0.034302   0.000532   0.001358
    20  H    0.000532   0.000532  -0.034302   0.368164  -0.034302   0.001358
               7          8          9         10         11         12
     1  C   -0.132397  -0.044009  -0.044009  -0.132397  -0.075242  -0.003814
     2  C    0.196276  -0.132397  -0.044009  -0.044009  -0.003814  -0.075242
     3  C   -0.132397   0.196276  -0.132397  -0.044009   0.001358  -0.003814
     4  C   -0.044009  -0.132397   0.196276  -0.132397   0.001358   0.001358
     5  C   -0.044009  -0.044009  -0.132397   0.196276  -0.003814   0.001358
     6  C    0.250331  -0.003199  -0.003199   0.250331   0.368164  -0.034302
     7  C    5.812494   0.250331  -0.003199  -0.003199  -0.034302   0.368164
     8  C    0.250331   5.812494   0.250331  -0.003199   0.000532  -0.034302
     9  C   -0.003199   0.250331   5.812494   0.250331   0.000532   0.000532
    10  C   -0.003199  -0.003199   0.250331   5.812494  -0.034302   0.000532
    11  H   -0.034302   0.000532   0.000532  -0.034302   0.377439   0.008203
    12  H    0.368164  -0.034302   0.000532   0.000532   0.008203   0.377439
    13  H   -0.034302   0.368164  -0.034302   0.000532   0.001672   0.008203
    14  H    0.000532  -0.034302   0.368164  -0.034302   0.001672   0.001672
    15  H    0.000532   0.000532  -0.034302   0.368164   0.008203   0.001672
    16  H    0.001358   0.001358  -0.003814  -0.075242   0.003539   0.000427
    17  H   -0.003814   0.001358   0.001358  -0.003814   0.003718   0.003539
    18  H   -0.075242  -0.003814   0.001358   0.001358   0.003539   0.003718
    19  H   -0.003814  -0.075242  -0.003814   0.001358   0.000427   0.003539
    20  H    0.001358  -0.003814  -0.075242  -0.003814   0.000427   0.000427
              13         14         15         16         17         18
     1  C    0.001358   0.001358  -0.003814  -0.034302   0.368164  -0.034302
     2  C   -0.003814   0.001358   0.001358   0.000532  -0.034302   0.368164
     3  C   -0.075242  -0.003814   0.001358   0.000532   0.000532  -0.034302
     4  C   -0.003814  -0.075242  -0.003814  -0.034302   0.000532   0.000532
     5  C    0.001358  -0.003814  -0.075242   0.368164  -0.034302   0.000532
     6  C    0.000532   0.000532  -0.034302  -0.003814  -0.075242  -0.003814
     7  C   -0.034302   0.000532   0.000532   0.001358  -0.003814  -0.075242
     8  C    0.368164  -0.034302   0.000532   0.001358   0.001358  -0.003814
     9  C   -0.034302   0.368164  -0.034302  -0.003814   0.001358   0.001358
    10  C    0.000532  -0.034302   0.368164  -0.075242  -0.003814   0.001358
    11  H    0.001672   0.001672   0.008203   0.003539   0.003718   0.003539
    12  H    0.008203   0.001672   0.001672   0.000427   0.003539   0.003718
    13  H    0.377439   0.008203   0.001672   0.000427   0.000427   0.003539
    14  H    0.008203   0.377439   0.008203   0.003539   0.000427   0.000427
    15  H    0.001672   0.008203   0.377439   0.003718   0.003539   0.000427
    16  H    0.000427   0.003539   0.003718   0.377439   0.008203   0.001672
    17  H    0.000427   0.000427   0.003539   0.008203   0.377439   0.008203
    18  H    0.003539   0.000427   0.000427   0.001672   0.008203   0.377439
    19  H    0.003718   0.003539   0.000427   0.001672   0.001672   0.008203
    20  H    0.003539   0.003718   0.003539   0.008203   0.001672   0.001672
              19         20
     1  C    0.000532   0.000532
     2  C   -0.034302   0.000532
     3  C    0.368164  -0.034302
     4  C   -0.034302   0.368164
     5  C    0.000532  -0.034302
     6  C    0.001358   0.001358
     7  C   -0.003814   0.001358
     8  C   -0.075242  -0.003814
     9  C   -0.003814  -0.075242
    10  C    0.001358  -0.003814
    11  H    0.000427   0.000427
    12  H    0.003539   0.000427
    13  H    0.003718   0.003539
    14  H    0.003539   0.003718
    15  H    0.000427   0.003539
    16  H    0.001672   0.008203
    17  H    0.001672   0.001672
    18  H    0.008203   0.001672
    19  H    0.377439   0.008203
    20  H    0.008203   0.377439
 Mulliken charges:
               1
     1  C   -0.370691
     2  C   -0.370691
     3  C   -0.370691
     4  C   -0.370691
     5  C   -0.370691
     6  C   -0.370691
     7  C   -0.370691
     8  C   -0.370691
     9  C   -0.370691
    10  C   -0.370691
    11  H    0.370691
    12  H    0.370691
    13  H    0.370691
    14  H    0.370691
    15  H    0.370691
    16  H    0.370691
    17  H    0.370691
    18  H    0.370691
    19  H    0.370691
    20  H    0.370691
 Sum of Mulliken charges =   0.00000
 Mulliken charges with hydrogens summed into heavy atoms:
               1
     1  C    0.000000
     2  C    0.000000
     3  C    0.000000
     4  C    0.000000
     5  C    0.000000
     6  C    0.000000
     7  C    0.000000
     8  C    0.000000
     9  C    0.000000
    10  C    0.000000
 Electronic spatial extent (au):  <R**2>=            882.3931
 Charge=              0.0000 electrons
 Dipole moment (field-independent basis, Debye):
    X=              0.0000    Y=             -0.0000    Z=              0.0000  Tot=              0.0000
 Quadrupole moment (field-independent basis, Debye-Ang):
   XX=            -58.2203   YY=            -58.2203   ZZ=            -58.8401
   XY=             -0.0000   XZ=             -0.0000   YZ=              0.0000
 Traceless Quadrupole moment (field-independent basis, Debye-Ang):
   XX=              0.2066   YY=              0.2066   ZZ=             -0.4132
   XY=             -0.0000   XZ=             -0.0000   YZ=              0.0000
 Octapole moment (field-independent basis, Debye-Ang**2):
  XXX=             -0.0000  YYY=              0.0000  ZZZ=              0.0000  XYY=             -0.0000
  XXY=              0.0000  XXZ=             -0.0000  XZZ=              0.0000  YZZ=              0.0000
  YYZ=             -0.0000  XYZ=             -0.0000
 Hexadecapole moment (field-independent basis, Debye-Ang**3):
 XXXX=           -444.4004 YYYY=           -444.4004 ZZZZ=           -345.8261 XXXY=             -0.0000
 XXXZ=             -0.0000 YYYX=             -0.0000 YYYZ=              0.0000 ZZZX=              0.0000
 ZZZY=              0.0000 XXYY=           -148.1335 XXZZ=           -123.7813 YYZZ=           -123.7813
 XXYZ=              0.0000 YYXZ=             -0.0000 ZZXY=             -0.0000
 N-N= 5.414557004208D+02 E-N=-1.980604220230D+03  KE= 3.850855529181D+02
 PrsmSu:  requested number of processors reduced to:  18 ShMem   1 Linda.
 No NMR shielding tensors so no spin-rotation constants.
 Leave Link  601 at Sat Apr 17 18:19:18 2021, MaxMem=   104857600 cpu:            2941.4 elap:              63.1
 (Enter /s/ls4/users/knvvv/bin/g16sse/l9999.exe)

 Test job not archived.
 1\1\GINC-N154\Stability\RM062X\Gen\C10H10\KNVVV\17-Apr-2021\0\\#P M062
 X/GEN Integral=UltraFineGrid SCF=NoSymm Stable=(RExt, Opt) IOp(1/33=1)
 \\Database calculations.\\0,1\C,0,0.,1.322643,0.783371\C,0,1.257909,0.
 408719,0.783371\C,0,0.77743,-1.070041,0.783371\C,0,-0.77743,-1.070041,
 0.783371\C,0,-1.257909,0.408719,0.783371\C,0,0.,1.322643,-0.783371\C,0
 ,1.257909,0.408719,-0.783371\C,0,0.77743,-1.070041,-0.783371\C,0,-0.77
 743,-1.070041,-0.783371\C,0,-1.257909,0.408719,-0.783371\H,0,0.,2.2305
 7,-1.380762\H,0,2.121398,0.689284,-1.380762\H,0,1.311096,-1.804569,-1.
 380762\H,0,-1.311096,-1.804569,-1.380762\H,0,-2.121398,0.689284,-1.380
 762\H,0,-2.121398,0.689284,1.380762\H,0,0.,2.23057,1.380762\H,0,2.1213
 98,0.689284,1.380762\H,0,1.311096,-1.804569,1.380762\H,0,-1.311096,-1.
 804569,1.380762\\Version=ES64L-G16RevA.03\State=1-A1'\HF=-386.9284851\
 RMSD=1.436e-09\Dipole=0.,0.,0.\Quadrupole=0.1536099,0.1536099,-0.30721
 98,0.,0.,0.\PG=D05H [5SGV(C2H2)]\\@


 TRUST EVERYONE, BUT CUT THE CARDS.
 Job cpu time:       6 days 21 hours 14 minutes 56.6 seconds.
 Elapsed time:       0 days  7 hours 11 minutes 10.8 seconds.
 File lengths (MBytes):  RWF=   1579 Int=      0 D2E=      0 Chk=    101 Scr=      1
 Normal termination of Gaussian 16 at Sat Apr 17 18:19:27 2021.
