 Entering Gaussian System, Link 0=/s/ls4/users/knvvv/bin/g16sse/g16
 Input=data/database/M062X--def2-QZVPPD--12_He_AE18.gjf
 Output=data/database/M062X--def2-QZVPPD--12_He_AE18.log
 Initial command:
 /s/ls4/users/knvvv/bin/g16sse/l1.exe "/s/ls4/users/knvvv/bin/scratch/Gau-20545.inp" -scrdir="/s/ls4/users/knvvv/bin/scratch/"
 Entering Link 1 = /s/ls4/users/knvvv/bin/g16sse/l1.exe PID=     20546.
  
 Copyright (c) 1988,1990,1992,1993,1995,1998,2003,2009,2016,
            Gaussian, Inc.  All Rights Reserved.
  
 This is part of the Gaussian(R) 16 program.  It is based on
 the Gaussian(R) 09 system (copyright 2009, Gaussian, Inc.),
 the Gaussian(R) 03 system (copyright 2003, Gaussian, Inc.),
 the Gaussian(R) 98 system (copyright 1998, Gaussian, Inc.),
 the Gaussian(R) 94 system (copyright 1995, Gaussian, Inc.),
 the Gaussian 92(TM) system (copyright 1992, Gaussian, Inc.),
 the Gaussian 90(TM) system (copyright 1990, Gaussian, Inc.),
 the Gaussian 88(TM) system (copyright 1988, Gaussian, Inc.),
 the Gaussian 86(TM) system (copyright 1986, Carnegie Mellon
 University), and the Gaussian 82(TM) system (copyright 1983,
 Carnegie Mellon University). Gaussian is a federally registered
 trademark of Gaussian, Inc.
  
 This software contains proprietary and confidential information,
 including trade secrets, belonging to Gaussian, Inc.
  
 This software is provided under written license and may be
 used, copied, transmitted, or stored only in accord with that
 written license.
  
 The following legend is applicable only to US Government
 contracts under FAR:
  
                    RESTRICTED RIGHTS LEGEND
  
 Use, reproduction and disclosure by the US Government is
 subject to restrictions as set forth in subparagraphs (a)
 and (c) of the Commercial Computer Software - Restricted
 Rights clause in FAR 52.227-19.
  
 Gaussian, Inc.
 340 Quinnipiac St., Bldg. 40, Wallingford CT 06492
  
  
 ---------------------------------------------------------------
 Warning -- This program may not be used in any manner that
 competes with the business of Gaussian, Inc. or will provide
 assistance to any competitor of Gaussian, Inc.  The licensee
 of this program is prohibited from giving any competitor of
 Gaussian, Inc. access to this program.  By using this program,
 the user acknowledges that Gaussian, Inc. is engaged in the
 business of creating and licensing software in the field of
 computational chemistry and represents and warrants to the
 licensee that it is not a competitor of Gaussian, Inc. and that
 it will not use this program in any manner prohibited above.
 ---------------------------------------------------------------
  

 Cite this work as:
 Gaussian 16, Revision A.03,
 M. J. Frisch, G. W. Trucks, H. B. Schlegel, G. E. Scuseria, 
 M. A. Robb, J. R. Cheeseman, G. Scalmani, V. Barone, 
 G. A. Petersson, H. Nakatsuji, X. Li, M. Caricato, A. V. Marenich, 
 J. Bloino, B. G. Janesko, R. Gomperts, B. Mennucci, H. P. Hratchian, 
 J. V. Ortiz, A. F. Izmaylov, J. L. Sonnenberg, D. Williams-Young, 
 F. Ding, F. Lipparini, F. Egidi, J. Goings, B. Peng, A. Petrone, 
 T. Henderson, D. Ranasinghe, V. G. Zakrzewski, J. Gao, N. Rega, 
 G. Zheng, W. Liang, M. Hada, M. Ehara, K. Toyota, R. Fukuda, 
 J. Hasegawa, M. Ishida, T. Nakajima, Y. Honda, O. Kitao, H. Nakai, 
 T. Vreven, K. Throssell, J. A. Montgomery, Jr., J. E. Peralta, 
 F. Ogliaro, M. J. Bearpark, J. J. Heyd, E. N. Brothers, K. N. Kudin, 
 V. N. Staroverov, T. A. Keith, R. Kobayashi, J. Normand, 
 K. Raghavachari, A. P. Rendell, J. C. Burant, S. S. Iyengar, 
 J. Tomasi, M. Cossi, J. M. Millam, M. Klene, C. Adamo, R. Cammi, 
 J. W. Ochterski, R. L. Martin, K. Morokuma, O. Farkas, 
 J. B. Foresman, and D. J. Fox, Gaussian, Inc., Wallingford CT, 2016.
 
 ******************************************
 Gaussian 16:  ES64L-G16RevA.03 25-Dec-2016
                17-Apr-2021 
 ******************************************
 %RWF=temp19_32795,70GB
 %nprocshared=48
 Will use up to   48 processors via shared memory.
 Default route: MaxDisk=80GB
 ----------------------------------------------------------------------
 #P M062X/GEN Integral=UltraFineGrid SCF=NoSymm Stable=(RExt, Opt) IOp(
 1/33=1)
 ----------------------------------------------------------------------
 1/33=1,38=1,172=1/1;
 2/12=2,17=6,18=5,40=1/2;
 3/5=7,11=2,25=1,30=1,74=-55,75=-5/1,2,3;
 4/9=2/1;
 5/5=2,38=5/2;
 6/7=2,8=2,9=2,10=2,28=1/1;
 8/6=1,10=90,11=11/1;
 9/8=-3,42=1,46=1/14;
 5/5=2,8=3,17=40,38=5/8(-2);
 6/7=2,8=2,9=2,10=2,28=1/1;
 99/5=1,9=1/99;
 Leave Link    1 at Sat Apr 17 05:42:42 2021, MaxMem=           0 cpu:              10.8 elap:               0.3
 (Enter /s/ls4/users/knvvv/bin/g16sse/l101.exe)
 ONIOM data not found on unit 2.
 ----------------------
 Database calculations.
 ----------------------
 TstMul:  ICh=     0
 TstMul:  Mul=     1
 TstMul:  ICh=     0
 TstMul:  Mul=     1
 Symbolic Z-matrix:
 Charge =  0 Multiplicity = 1
 He                    0.        0.        0. 
 
 RdStrC is calling ZToCFu for IStruc=1 NZ=     1.
 PrtBox:  NBox=     1 Levels=  0 BoxLen=    8.00 SMaxX=        0.00
          Shift=            0.000000            0.000000            0.000000
 Box      1 Number                   0 centers from      1 to      1:
 After GenITR:
 ITRead=  0
 MicOpt= -1
 ITRead=  0
 MicOpt= -1
 NAtoms=      1 NQM=        1 NQMF=       0 NMMI=      0 NMMIF=      0
                NMic=       0 NMicF=      0.
                    Isotopes and Nuclear Properties:
 (Nuclear quadrupole moments (NQMom) in fm**2, nuclear magnetic moments (NMagM)
  in nuclear magnetons)

  Atom         1
 IAtWgt=           4
 AtmWgt=   4.0026033
 NucSpn=           0
 AtZEff=  -0.0000000
 NQMom=    0.0000000
 NMagM=    0.0000000
 AtZNuc=   2.0000000
 No MM parameters found.
 Leave Link  101 at Sat Apr 17 05:42:42 2021, MaxMem=   104857600 cpu:               6.8 elap:               0.2
 (Enter /s/ls4/users/knvvv/bin/g16sse/l202.exe)
                          Input orientation:                          
 ---------------------------------------------------------------------
 Center     Atomic      Atomic             Coordinates (Angstroms)
 Number     Number       Type             X           Y           Z
 ---------------------------------------------------------------------
      1          2           0        0.000000    0.000000    0.000000
 ---------------------------------------------------------------------
 Stoichiometry    He
 Framework group  OH[O(He)]
 Deg. of freedom     0
 Full point group                 OH      NOp  48
 Largest Abelian subgroup         D2H     NOp   8
 Largest concise Abelian subgroup C1      NOp   1
                         Standard orientation:                         
 ---------------------------------------------------------------------
 Center     Atomic      Atomic             Coordinates (Angstroms)
 Number     Number       Type             X           Y           Z
 ---------------------------------------------------------------------
      1          2           0        0.000000    0.000000    0.000000
 ---------------------------------------------------------------------
 Leave Link  202 at Sat Apr 17 05:42:43 2021, MaxMem=   104857600 cpu:              36.8 elap:               0.8
 (Enter /s/ls4/users/knvvv/bin/g16sse/l301.exe)
 General basis read from cards:  (5D, 7F)
 Centers:       1
 S 5 1.00
     Exponent=  1.1446470809D+03 Coefficients=  3.5861578618D-04
     Exponent=  1.7164596667D+02 Coefficients=  2.7725434466D-03
     Exponent=  3.9066056254D+01 Coefficients=  1.4241892216D-02
     Exponent=  1.1051401989D+01 Coefficients=  5.5457352277D-02
     Exponent=  3.5725574473D+00 Coefficients=  1.6170511810D-01
 S 1 1.00
     Exponent=  1.2429415962D+00 Coefficients=  3.3177883833D-01
 S 1 1.00
     Exponent=  4.4807668730D-01 Coefficients=  4.2014033068D-01
 S 1 1.00
     Exponent=  1.6411579128D-01 Coefficients=  1.8652273014D-01
 P 1 1.00
     Exponent=  5.9940000000D+00 Coefficients=  1.0000000000D+00
 P 1 1.00
     Exponent=  1.7450000000D+00 Coefficients=  1.0000000000D+00
 P 1 1.00
     Exponent=  5.6000000000D-01 Coefficients=  1.0000000000D+00
 P 1 1.00
     Exponent=  1.6298923122D-01 Coefficients=  1.0000000000D+00
 D 1 1.00
     Exponent=  4.2990000000D+00 Coefficients=  1.0000000000D+00
 D 1 1.00
     Exponent=  1.2230000000D+00 Coefficients=  1.0000000000D+00
 F 1 1.00
     Exponent=  2.6800000000D+00 Coefficients=  1.0000000000D+00
 ****
 Ernie: Thresh=  0.10000D-02 Tol=  0.10000D-05 Strict=F.
 There are    10 symmetry adapted cartesian basis functions of AG  symmetry.
 There are     2 symmetry adapted cartesian basis functions of B1G symmetry.
 There are     2 symmetry adapted cartesian basis functions of B2G symmetry.
 There are     2 symmetry adapted cartesian basis functions of B3G symmetry.
 There are     1 symmetry adapted cartesian basis functions of AU  symmetry.
 There are     7 symmetry adapted cartesian basis functions of B1U symmetry.
 There are     7 symmetry adapted cartesian basis functions of B2U symmetry.
 There are     7 symmetry adapted cartesian basis functions of B3U symmetry.
 There are     8 symmetry adapted basis functions of AG  symmetry.
 There are     2 symmetry adapted basis functions of B1G symmetry.
 There are     2 symmetry adapted basis functions of B2G symmetry.
 There are     2 symmetry adapted basis functions of B3G symmetry.
 There are     1 symmetry adapted basis functions of AU  symmetry.
 There are     6 symmetry adapted basis functions of B1U symmetry.
 There are     6 symmetry adapted basis functions of B2U symmetry.
 There are     6 symmetry adapted basis functions of B3U symmetry.
    33 basis functions,    42 primitive gaussians,    38 cartesian basis functions
     1 alpha electrons        1 beta electrons
       nuclear repulsion energy         0.0000000000 Hartrees.
 IExCor= 4336 DFT=T Ex+Corr=M062X ExCW=0 ScaHFX=  0.540000
 ScaDFX=  1.000000  1.000000  1.000000  1.000000 ScalE2=  1.000000  1.000000
 IRadAn=      5 IRanWt=     -1 IRanGd=            0 ICorTp=0 IEmpDi=  4
 NAtoms=    1 NActive=    1 NUniq=    1 SFac= 1.00D+00 NAtFMM=   60 NAOKFM=F Big=F
 Integral buffers will be    131072 words long.
 Raffenetti 2 integral format.
 Two-electron integral symmetry is turned on.
 Leave Link  301 at Sat Apr 17 05:42:43 2021, MaxMem=   104857600 cpu:               7.1 elap:               0.2
 (Enter /s/ls4/users/knvvv/bin/g16sse/l302.exe)
 NPDir=0 NMtPBC=     1 NCelOv=     1 NCel=       1 NClECP=     1 NCelD=      1
         NCelK=      1 NCelE2=     1 NClLst=     1 CellRange=     0.0.
 One-electron integrals computed using PRISM.
 One-electron integral symmetry used in STVInt
 PrsmSu:  requested number of processors reduced to:  13 ShMem   1 Linda.
 NBasis=    33 RedAO= T EigKep=  3.48D-02  NBF=     8     2     2     2     1     6     6     6
 NBsUse=    33 1.00D-06 EigRej= -1.00D+00 NBFU=     8     2     2     2     1     6     6     6
 Precomputing XC quadrature grid using
 IXCGrd= 4 IRadAn=           5 IRanWt=          -1 IRanGd=           0 AccXCQ= 0.00D+00.
 Generated NRdTot=       0 NPtTot=           0 NUsed=           0 NTot=          32
 NSgBfM=    38    38    38    38    38 MxSgAt=     1 MxSgA2=     1.
 Leave Link  302 at Sat Apr 17 05:42:46 2021, MaxMem=   104857600 cpu:             137.4 elap:               3.0
 (Enter /s/ls4/users/knvvv/bin/g16sse/l303.exe)
 DipDrv:  MaxL=1.
 Leave Link  303 at Sat Apr 17 05:42:47 2021, MaxMem=   104857600 cpu:              15.0 elap:               0.3
 (Enter /s/ls4/users/knvvv/bin/g16sse/l401.exe)
 SCF N**3 symmetry information disabled.
 ExpMin= 1.63D-01 ExpMax= 1.14D+03 ExpMxC= 1.72D+02 IAcc=3 IRadAn=         5 AccDes= 0.00D+00
 Harris functional with IExCor= 1009 and IRadAn=       5 diagonalized for initial guess.
 HarFok:  IExCor= 1009 AccDes= 0.00D+00 IRadAn=         5 IDoV= 1 UseB2=F ITyADJ=14
 ICtDFT=  3500011 ScaDFX=  1.000000  1.000000  1.000000  1.000000
 FoFCou: FMM=F IPFlag=           0 FMFlag=      100000 FMFlg1=           0
         NFxFlg=           0 DoJE=T BraDBF=F KetDBF=T FulRan=T
         wScrn=  0.000000 ICntrl=       500 IOpCl=  0 I1Cent=   200000004 NGrid=           0
         NMat0=    1 NMatS0=      1 NMatT0=    0 NMatD0=    1 NMtDS0=    0 NMtDT0=    0
 Petite list used in FoFCou.
 Harris En= -2.89277838418442    
 JPrj=0 DoOrth=F DoCkMO=F.
 Initial guess orbital symmetries:
       Occupied  (A1G)
       Virtual   (T1U) (T1U) (T1U) (A1G) (T1U) (T1U) (T1U) (A1G)
                 (T2G) (T2G) (T2G) (EG) (EG) (T1U) (T1U) (T1U)
                 (A1G) (T2U) (T2U) (T2U) (A2U) (T1U) (T1U) (T1U)
                 (T2G) (T2G) (T2G) (EG) (EG) (T1U) (T1U) (T1U)
 The electronic state of the initial guess is 1-A1G.
 Leave Link  401 at Sat Apr 17 05:42:47 2021, MaxMem=   104857600 cpu:              20.5 elap:               0.5
 (Enter /s/ls4/users/knvvv/bin/g16sse/l502.exe)
 Keep R1 ints in memory in symmetry-blocked form, NReq=41613413.
 FoFCou: FMM=F IPFlag=           0 FMFlag=           0 FMFlg1=           0
         NFxFlg=           0 DoJE=F BraDBF=F KetDBF=F FulRan=T
         wScrn=  0.000000 ICntrl=       600 IOpCl=  0 I1Cent=           0 NGrid=           0
         NMat0=    1 NMatS0=    561 NMatT0=    0 NMatD0=    1 NMtDS0=    0 NMtDT0=    0
 Petite list used in FoFCou.
 Closed shell SCF:
 Using DIIS extrapolation, IDIIS=  1040.
 NGot=   104857600 LenX=   104825715 LenY=   104823830
 Requested convergence on RMS density matrix=1.00D-08 within 128 cycles.
 Requested convergence on MAX density matrix=1.00D-06.
 Requested convergence on             energy=1.00D-06.
 No special actions if energy rises.
 Integral accuracy reduced to 1.0D-05 until final iterations.

 Cycle   1  Pass 0  IDiag  1:
 E= -2.90432895272403    
 DIIS: error= 5.15D-03 at cycle   1 NSaved=   1.
 NSaved= 1 IEnMin= 1 EnMin= -2.90432895272403     IErMin= 1 ErrMin= 5.15D-03
 ErrMax= 5.15D-03  0.00D+00 EMaxC= 1.00D-01 BMatC= 1.82D-04 BMatP= 1.82D-04
 IDIUse=3 WtCom= 9.48D-01 WtEn= 5.15D-02
 Coeff-Com:  0.100D+01
 Coeff-En:   0.100D+01
 Coeff:      0.100D+01
 Gap=     1.036 Goal=   None    Shift=    0.000
 GapD=    1.036 DampG=2.000 DampE=1.000 DampFc=2.0000 IDamp=-1.
 RMSDP=7.84D-04 MaxDP=1.66D-02              OVMax= 1.06D-02

 Cycle   2  Pass 0  IDiag  1:
 E= -2.90460841345797     Delta-E=       -0.000279460734 Rises=F Damp=F
 DIIS: error= 8.88D-04 at cycle   2 NSaved=   2.
 NSaved= 2 IEnMin= 2 EnMin= -2.90460841345797     IErMin= 2 ErrMin= 8.88D-04
 ErrMax= 8.88D-04  0.00D+00 EMaxC= 1.00D-01 BMatC= 7.79D-06 BMatP= 1.82D-04
 IDIUse=3 WtCom= 9.91D-01 WtEn= 8.88D-03
 Coeff-Com: -0.460D-01 0.105D+01
 Coeff-En:   0.000D+00 0.100D+01
 Coeff:     -0.456D-01 0.105D+01
 Gap=     1.029 Goal=   None    Shift=    0.000
 RMSDP=1.13D-04 MaxDP=2.81D-03 DE=-2.79D-04 OVMax= 1.09D-03

 Cycle   3  Pass 0  IDiag  1:
 E= -2.90461431067780     Delta-E=       -0.000005897220 Rises=F Damp=F
 DIIS: error= 1.46D-04 at cycle   3 NSaved=   3.
 NSaved= 3 IEnMin= 3 EnMin= -2.90461431067780     IErMin= 3 ErrMin= 1.46D-04
 ErrMax= 1.46D-04  0.00D+00 EMaxC= 1.00D-01 BMatC= 1.68D-07 BMatP= 7.79D-06
 IDIUse=3 WtCom= 9.99D-01 WtEn= 1.46D-03
 Coeff-Com: -0.279D-01 0.810D-01 0.947D+00
 Coeff-En:   0.000D+00 0.000D+00 0.100D+01
 Coeff:     -0.279D-01 0.809D-01 0.947D+00
 Gap=     1.030 Goal=   None    Shift=    0.000
 RMSDP=1.50D-05 MaxDP=3.22D-04 DE=-5.90D-06 OVMax= 1.97D-04

 Cycle   4  Pass 0  IDiag  1:
 E= -2.90461441474395     Delta-E=       -0.000000104066 Rises=F Damp=F
 DIIS: error= 6.91D-06 at cycle   4 NSaved=   4.
 NSaved= 4 IEnMin= 4 EnMin= -2.90461441474395     IErMin= 4 ErrMin= 6.91D-06
 ErrMax= 6.91D-06  0.00D+00 EMaxC= 1.00D-01 BMatC= 3.17D-10 BMatP= 1.68D-07
 IDIUse=1 WtCom= 1.00D+00 WtEn= 0.00D+00
 Coeff-Com: -0.131D-03 0.572D-02-0.150D-01 0.101D+01
 Coeff:     -0.131D-03 0.572D-02-0.150D-01 0.101D+01
 Gap=     1.030 Goal=   None    Shift=    0.000
 RMSDP=4.09D-07 MaxDP=1.05D-05 DE=-1.04D-07 OVMax= 5.30D-06

 Initial convergence to 1.0D-05 achieved.  Increase integral accuracy.
 Cycle   5  Pass 1  IDiag  1:
 E= -2.90461441490439     Delta-E=       -0.000000000160 Rises=F Damp=F
 DIIS: error= 7.82D-09 at cycle   1 NSaved=   1.
 NSaved= 1 IEnMin= 1 EnMin= -2.90461441490439     IErMin= 1 ErrMin= 7.82D-09
 ErrMax= 7.82D-09  0.00D+00 EMaxC= 1.00D-01 BMatC= 3.27D-16 BMatP= 3.27D-16
 IDIUse=1 WtCom= 1.00D+00 WtEn= 0.00D+00
 Coeff-Com:  0.100D+01
 Coeff:      0.100D+01
 Gap=     1.030 Goal=   None    Shift=    0.000
 RMSDP=4.09D-07 MaxDP=1.05D-05 DE=-1.60D-10 OVMax= 4.33D-09

 Cycle   6  Pass 1  IDiag  1:
 E= -2.90461441490439     Delta-E=       -0.000000000000 Rises=F Damp=F
 DIIS: error= 4.06D-10 at cycle   2 NSaved=   2.
 NSaved= 2 IEnMin= 2 EnMin= -2.90461441490439     IErMin= 2 ErrMin= 4.06D-10
 ErrMax= 4.06D-10  0.00D+00 EMaxC= 1.00D-01 BMatC= 9.81D-19 BMatP= 3.27D-16
 IDIUse=1 WtCom= 1.00D+00 WtEn= 0.00D+00
 Coeff-Com: -0.388D-01 0.104D+01
 Coeff:     -0.388D-01 0.104D+01
 Gap=     1.030 Goal=   None    Shift=    0.000
 RMSDP=3.88D-11 MaxDP=8.32D-10 DE=-2.66D-15 OVMax= 5.05D-10

 SCF Done:  E(RM062X) =  -2.90461441490     A.U. after    6 cycles
            NFock=  6  Conv=0.39D-10     -V/T= 2.0103
 KE= 2.874971742614D+00 PE=-6.755799648596D+00 EE= 9.762134910777D-01
 Leave Link  502 at Sat Apr 17 05:43:07 2021, MaxMem=   104857600 cpu:             925.8 elap:              19.7
 (Enter /s/ls4/users/knvvv/bin/g16sse/l601.exe)
 Copying SCF densities to generalized density rwf, IOpCl= 0 IROHF=0.

 **********************************************************************

            Population analysis using the SCF density.

 **********************************************************************

 Orbital symmetries:
       Occupied  (A1G)
       Virtual   (T1U) (T1U) (T1U) (A1G) (T1U) (T1U) (T1U) (A1G)
                 (T2G) (T2G) (T2G) (EG) (EG) (T1U) (T1U) (T1U)
                 (A1G) (A2U) (T2U) (T2U) (T2U) (T1U) (T1U) (T1U)
                 (T2G) (T2G) (T2G) (EG) (EG) (T1U) (T1U) (T1U)
 The electronic state is 1-A1G.
 Alpha  occ. eigenvalues --   -0.75694
 Alpha virt. eigenvalues --    0.27276   0.27276   0.27276   0.33641   1.32047
 Alpha virt. eigenvalues --    1.32047   1.32047   2.02251   3.60890   3.60890
 Alpha virt. eigenvalues --    3.60890   3.60890   3.60890   4.77013   4.77013
 Alpha virt. eigenvalues --    4.77013   9.34801  10.97335  10.97335  10.97335
 Alpha virt. eigenvalues --   10.97335  10.97335  10.97335  10.97335  15.35230
 Alpha virt. eigenvalues --   15.35230  15.35230  15.35230  15.35230  16.95389
 Alpha virt. eigenvalues --   16.95389  16.95389
          Condensed to atoms (all electrons):
               1
     1  He   2.000000
 Mulliken charges:
               1
     1  He  -0.000000
 Sum of Mulliken charges =  -0.00000
 Mulliken charges with hydrogens summed into heavy atoms:
               1
     1  He  -0.000000
 Electronic spatial extent (au):  <R**2>=              2.4315
 Charge=             -0.0000 electrons
 Dipole moment (field-independent basis, Debye):
    X=             -0.0000    Y=              0.0000    Z=              0.0000  Tot=              0.0000
 Quadrupole moment (field-independent basis, Debye-Ang):
   XX=             -1.0901   YY=             -1.0901   ZZ=             -1.0901
   XY=              0.0000   XZ=              0.0000   YZ=              0.0000
 Traceless Quadrupole moment (field-independent basis, Debye-Ang):
   XX=              0.0000   YY=              0.0000   ZZ=              0.0000
   XY=              0.0000   XZ=              0.0000   YZ=              0.0000
 Octapole moment (field-independent basis, Debye-Ang**2):
  XXX=              0.0000  YYY=              0.0000  ZZZ=              0.0000  XYY=              0.0000
  XXY=             -0.0000  XXZ=              0.0000  XZZ=              0.0000  YZZ=             -0.0000
  YYZ=              0.0000  XYZ=             -0.0000
 Hexadecapole moment (field-independent basis, Debye-Ang**3):
 XXXX=             -0.6246 YYYY=             -0.6246 ZZZZ=             -0.6246 XXXY=              0.0000
 XXXZ=             -0.0000 YYYX=              0.0000 YYYZ=             -0.0000 ZZZX=             -0.0000
 ZZZY=             -0.0000 XXYY=             -0.2082 XXZZ=             -0.2082 YYZZ=             -0.2082
 XXYZ=             -0.0000 YYXZ=             -0.0000 ZZXY=              0.0000
 N-N= 0.000000000000D+00 E-N=-6.755799648171D+00  KE= 2.874971742614D+00
 No NMR shielding tensors so no spin-rotation constants.
 Leave Link  601 at Sat Apr 17 05:43:08 2021, MaxMem=   104857600 cpu:              66.8 elap:               1.5
 (Enter /s/ls4/users/knvvv/bin/g16sse/l801.exe)
 DoSCS=F DFT=T ScalE2(SS,OS)=  1.000000  1.000000
 Range of M.O.s used for correlation:     1    33
 NBasis=    33 NAE=     1 NBE=     1 NFC=     0 NFV=     0
 NROrb=     33 NOA=     1 NOB=     1 NVA=    32 NVB=    32
 Leave Link  801 at Sat Apr 17 05:43:08 2021, MaxMem=   104857600 cpu:               4.7 elap:               0.1
 (Enter /s/ls4/users/knvvv/bin/g16sse/l914.exe)
 RHF ground state
 Doing stability rather than CIS.
 Keep R1 and R2 ints in memory in symmetry-blocked form, NReq=66019977.
 FoFCou: FMM=F IPFlag=           0 FMFlag=           0 FMFlg1=           0
         NFxFlg=           0 DoJE=F BraDBF=F KetDBF=F FulRan=T
         wScrn=  0.000000 ICntrl=       600 IOpCl=  0 I1Cent=           0 NGrid=           0
         NMat0=    1 NMatS0=    561 NMatT0=    0 NMatD0=    1 NMtDS0=    0 NMtDT0=    0
 Petite list used in FoFCou.
 MDV=   104857600 DFT=T DoStab=T Mixed=T DoRPA=F DoScal=F NonHer=F
 Making orbital integer symmetry assigments:
 Orbital symmetries:
       Occupied  (A1G)
       Virtual   (T1U) (T1U) (T1U) (A1G) (T1U) (T1U) (T1U) (A1G)
                 (T2G) (T2G) (T2G) (EG) (EG) (T1U) (T1U) (T1U)
                 (A1G) (A2U) (T2U) (T2U) (T2U) (T1U) (T1U) (T1U)
                 (T2G) (T2G) (T2G) (EG) (EG) (T1U) (T1U) (T1U)
    48 initial guesses have been made.
 Convergence on wavefunction:    0.001000000000000
 Davidson Disk Diagonalization:  ConvIn= 1.00D-03 SkipCon=T Conv= 1.00D-03.
 Max sub-space:   128 roots to seek:    48 dimension of matrix:           64
 Iteration     1 Dimension    48 NMult     0 NNew     48
 CISAX will form    48 AO SS matrices at one time.
 NMat=    48 NSing=    24 JSym2X= 2.
 New state      1 was old state      8
 Excitation Energies [eV] at current iteration:
 Root      1 :    22.742862010564530
 Root      2 :    22.889877623022360
 Root      3 :    22.889877623022960
 Root      4 :    22.889877623023410
 Root      5 :    23.840022959520800
 Root      6 :    23.840022959521250
 Root      7 :    23.840022959521380
 Root      8 :    28.785578397717950
 Root      9 :    45.764095118957120
 Root     10 :    45.764095118957450
 Root     11 :    45.764095118957720
 Root     12 :    51.907837595139300
 Root     13 :    51.907837595139430
 Root     14 :    51.907837595139580
 Root     15 :    60.802709475839130
 Root     16 :    74.762958924716120
 Root     17 :   107.522185018380000
 Root     18 :   107.522185018380100
 Root     19 :   107.522185018380200
 Root     20 :   107.522185018799100
 Root     21 :   107.522185018799200
 Root     22 :   109.494718087300800
 Root     23 :   109.494718087300800
 Root     24 :   109.494718087301000
 Root     25 :   109.494718088291200
 Root     26 :   109.494718088291300
 Root     27 :   138.319029968281800
 Root     28 :   138.319029968282500
 Root     29 :   138.319029968282600
 Root     30 :   147.084097175766600
 Root     31 :   147.084097175767000
 Root     32 :   147.084097175767300
 Root     33 :   273.644559344902800
 Root     34 :   285.363869946814800
 Root     35 :   315.994545789418800
 Root     36 :   315.994545789935400
 Root     37 :   315.994545789936100
 Root     38 :   315.994545789937200
 Root     39 :   315.994545790003700
 Root     40 :   315.994545790004200
 Root     41 :   315.994545790004800
 Root     42 :   317.968282517078600
 Root     43 :   317.968282517079200
 Root     44 :   317.968282517079700
 Root     45 :   317.968282517146700
 Root     46 :   317.968282518104500
 Root     47 :   317.968282518105100
 Root     48 :   317.968282518105500
 Iteration     2 Dimension    64 NMult    48 NNew     16
 CISAX will form    16 AO SS matrices at one time.
 NMat=    16 NSing=     8 JSym2X= 2.
 Root      1 has converged.
 Excitation Energies [eV] at current iteration:
 Root      1 :    22.742862010564280   Change is   -0.000000000000251
 Root      2 :    22.871834011539470   Change is   -0.018043611482891
 Root      3 :    22.871834011540060   Change is   -0.018043611482903
 Root      4 :    22.871834011540520   Change is   -0.018043611482891
 Root      5 :    23.839420310970900   Change is   -0.000602648549898
 Root      6 :    23.839420310971210   Change is   -0.000602648550173
 Root      7 :    23.839420310971300   Change is   -0.000602648549958
 Root      8 :    28.785578397718040   Change is    0.000000000000091
 Root      9 :    45.661870223782750   Change is   -0.102224895174697
 Root     10 :    45.661870223782880   Change is   -0.102224895174238
 Root     11 :    45.661870223783020   Change is   -0.102224895174697
 Root     12 :    51.888253086443400   Change is   -0.019584508696028
 Root     13 :    51.888253086443440   Change is   -0.019584508696131
 Root     14 :    51.888253086443530   Change is   -0.019584508695775
 Root     15 :    60.802709475839020   Change is   -0.000000000000109
 Root     16 :    74.762958924715950   Change is   -0.000000000000169
 Root     17 :   107.519757243584400   Change is   -0.002427774795606
 Root     18 :   107.519757243584600   Change is   -0.002427774795582
 Root     19 :   107.519757243584600   Change is   -0.002427774795461
 Root     20 :   107.519757244003800   Change is   -0.002427774795449
 Root     21 :   107.519757244004000   Change is   -0.002427774795207
 Root     22 :   109.479144544231500   Change is   -0.015573543069266
 Root     23 :   109.479144544231600   Change is   -0.015573543069242
 Root     24 :   109.479144544231600   Change is   -0.015573543069362
 Root     25 :   109.479144545224400   Change is   -0.015573543066849
 Root     26 :   109.479144545224600   Change is   -0.015573543066728
 Root     27 :   138.076923587579300   Change is   -0.242106380702493
 Root     28 :   138.076923587579300   Change is   -0.242106380703146
 Root     29 :   138.076923587579600   Change is   -0.242106380703025
 Root     30 :   147.079897951063900   Change is   -0.004199224703180
 Root     31 :   147.079897951063900   Change is   -0.004199224702745
 Root     32 :   147.079897951064000   Change is   -0.004199224703349
 Root     33 :   273.644559344903300   Change is    0.000000000000435
 Root     34 :   285.363869946814900   Change is    0.000000000000097
 Root     35 :   315.994545789419000   Change is    0.000000000000193
 Root     36 :   315.994545789935600   Change is    0.000000000000097
 Root     37 :   315.994545789936000   Change is   -0.000000000000048
 Root     38 :   315.994545789936900   Change is   -0.000000000000387
 Root     39 :   315.994545790003700   Change is    0.000000000000048
 Root     40 :   315.994545790003900   Change is   -0.000000000000242
 Root     41 :   315.994545790004500   Change is   -0.000000000000338
 Root     42 :   317.968282517078800   Change is    0.000000000000242
 Root     43 :   317.968282517078900   Change is   -0.000000000000290
 Root     44 :   317.968282517079900   Change is    0.000000000000193
 Root     45 :   317.968282517146900   Change is    0.000000000000193
 Root     46 :   317.968282518104700   Change is    0.000000000000193
 Root     47 :   317.968282518105100   Change is   -0.000000000000435
 Root     48 :   317.968282518105400   Change is    0.000000000000193
 Convergence achieved on expansion vectors.
 ***********************************************************************
 Stability analysis using <AA,BB:AA,BB> singles matrix:
 ***********************************************************************
 1PDM for each excited state written to RWF  633
 Ground to excited state transition densities written to RWF  633

 Eigenvectors of the stability matrix:
 
 Eigenvector   1:      Triplet-A1G  Eigenvalue= 0.8357848  <S**2>=2.000
       1 ->  5         0.70116
 
 Eigenvector   2:      Triplet-T1U  Eigenvalue= 0.8405244  <S**2>=2.000
       1 ->  2         0.56484
       1 ->  4         0.40928
       1 ->  7         0.10355
 
 Eigenvector   3:      Triplet-T1U  Eigenvalue= 0.8405244  <S**2>=2.000
       1 ->  2         0.17239
       1 ->  3         0.60133
       1 ->  4        -0.31279
 
 Eigenvector   4:      Triplet-T1U  Eigenvalue= 0.8405244  <S**2>=2.000
       1 ->  2        -0.37469
       1 ->  3         0.35350
       1 ->  4         0.47308
 
 Eigenvector   5:      Singlet-T1U  Eigenvalue= 0.8760826  <S**2>=0.000
       1 ->  2         0.66812
       1 ->  3         0.10066
       1 ->  4         0.20730
 
 Eigenvector   6:      Singlet-T1U  Eigenvalue= 0.8760826  <S**2>=0.000
       1 ->  2        -0.22858
       1 ->  3         0.20852
       1 ->  4         0.63542
 The wavefunction is stable under the perturbations considered.
 Leave Link  914 at Sat Apr 17 05:43:14 2021, MaxMem=   104857600 cpu:             256.6 elap:               5.5
 (Enter /s/ls4/users/knvvv/bin/g16sse/l508.exe)
 The wavefunction is already stable.
 Leave Link  508 at Sat Apr 17 05:43:14 2021, MaxMem=   104857600 cpu:               2.2 elap:               0.1
 (Enter /s/ls4/users/knvvv/bin/g16sse/l601.exe)
 Copying SCF densities to generalized density rwf, IOpCl= 0 IROHF=0.

 **********************************************************************

            Population analysis using the SCF density.

 **********************************************************************

 Orbital symmetries:
       Occupied  (A1G)
       Virtual   (T1U) (T1U) (T1U) (A1G) (T1U) (T1U) (T1U) (A1G)
                 (T2G) (T2G) (T2G) (EG) (EG) (T1U) (T1U) (T1U)
                 (A1G) (A2U) (T2U) (T2U) (T2U) (T1U) (T1U) (T1U)
                 (T2G) (T2G) (T2G) (EG) (EG) (T1U) (T1U) (T1U)
 The electronic state is 1-A1G.
 Alpha  occ. eigenvalues --   -0.75694
 Alpha virt. eigenvalues --    0.27276   0.27276   0.27276   0.33641   1.32047
 Alpha virt. eigenvalues --    1.32047   1.32047   2.02251   3.60890   3.60890
 Alpha virt. eigenvalues --    3.60890   3.60890   3.60890   4.77013   4.77013
 Alpha virt. eigenvalues --    4.77013   9.34801  10.97335  10.97335  10.97335
 Alpha virt. eigenvalues --   10.97335  10.97335  10.97335  10.97335  15.35230
 Alpha virt. eigenvalues --   15.35230  15.35230  15.35230  15.35230  16.95389
 Alpha virt. eigenvalues --   16.95389  16.95389
          Condensed to atoms (all electrons):
               1
     1  He   2.000000
 Mulliken charges:
               1
     1  He  -0.000000
 Sum of Mulliken charges =  -0.00000
 Mulliken charges with hydrogens summed into heavy atoms:
               1
     1  He  -0.000000
 Electronic spatial extent (au):  <R**2>=              2.4315
 Charge=             -0.0000 electrons
 Dipole moment (field-independent basis, Debye):
    X=             -0.0000    Y=              0.0000    Z=              0.0000  Tot=              0.0000
 Quadrupole moment (field-independent basis, Debye-Ang):
   XX=             -1.0901   YY=             -1.0901   ZZ=             -1.0901
   XY=              0.0000   XZ=              0.0000   YZ=              0.0000
 Traceless Quadrupole moment (field-independent basis, Debye-Ang):
   XX=              0.0000   YY=              0.0000   ZZ=              0.0000
   XY=              0.0000   XZ=              0.0000   YZ=              0.0000
 Octapole moment (field-independent basis, Debye-Ang**2):
  XXX=              0.0000  YYY=              0.0000  ZZZ=              0.0000  XYY=              0.0000
  XXY=             -0.0000  XXZ=              0.0000  XZZ=              0.0000  YZZ=             -0.0000
  YYZ=              0.0000  XYZ=             -0.0000
 Hexadecapole moment (field-independent basis, Debye-Ang**3):
 XXXX=             -0.6246 YYYY=             -0.6246 ZZZZ=             -0.6246 XXXY=              0.0000
 XXXZ=             -0.0000 YYYX=              0.0000 YYYZ=             -0.0000 ZZZX=             -0.0000
 ZZZY=             -0.0000 XXYY=             -0.2082 XXZZ=             -0.2082 YYZZ=             -0.2082
 XXYZ=             -0.0000 YYXZ=             -0.0000 ZZXY=              0.0000
 N-N= 0.000000000000D+00 E-N=-6.755799648171D+00  KE= 2.874971742614D+00
 No NMR shielding tensors so no spin-rotation constants.
 Leave Link  601 at Sat Apr 17 05:43:16 2021, MaxMem=   104857600 cpu:              74.3 elap:               1.6
 (Enter /s/ls4/users/knvvv/bin/g16sse/l9999.exe)

 Test job not archived.
 1\1\GINC-N185\Stability\RM062X\Gen\He1\KNVVV\17-Apr-2021\0\\#P M062X/G
 EN Integral=UltraFineGrid SCF=NoSymm Stable=(RExt, Opt) IOp(1/33=1)\\D
 atabase calculations.\\0,1\He,0,0.,0.,0.\\Version=ES64L-G16RevA.03\Sta
 te=1-A1G\HF=-2.9046144\RMSD=3.881e-11\Dipole=0.,0.,0.\Quadrupole=0.,0.
 ,0.,0.,0.,0.\PG=OH [O(He1)]\\@


 "A LITTLE BIT GOES A LONG WAY"
 R.S. MULLIKEN AS QUOTED BY K. RUEDENBERG
 Job cpu time:       0 days  0 hours 26 minutes 10.1 seconds.
 Elapsed time:       0 days  0 hours  0 minutes 33.7 seconds.
 File lengths (MBytes):  RWF=      6 Int=      0 D2E=      0 Chk=      1 Scr=      1
 Normal termination of Gaussian 16 at Sat Apr 17 05:43:16 2021.
