 Entering Gaussian System, Link 0=/s/ls4/users/knvvv/bin/g16sse/g16
 Input=data/database/M062X--def2-QZVPPD--16b_triazolidinedione_trim_3B-69.gjf
 Output=data/database/M062X--def2-QZVPPD--16b_triazolidinedione_trim_3B-69.log
 Initial command:
 /s/ls4/users/knvvv/bin/g16sse/l1.exe "/s/ls4/users/knvvv/bin/scratch/Gau-2521.inp" -scrdir="/s/ls4/users/knvvv/bin/scratch/"
 Entering Link 1 = /s/ls4/users/knvvv/bin/g16sse/l1.exe PID=      2522.
  
 Copyright (c) 1988,1990,1992,1993,1995,1998,2003,2009,2016,
            Gaussian, Inc.  All Rights Reserved.
  
 This is part of the Gaussian(R) 16 program.  It is based on
 the Gaussian(R) 09 system (copyright 2009, Gaussian, Inc.),
 the Gaussian(R) 03 system (copyright 2003, Gaussian, Inc.),
 the Gaussian(R) 98 system (copyright 1998, Gaussian, Inc.),
 the Gaussian(R) 94 system (copyright 1995, Gaussian, Inc.),
 the Gaussian 92(TM) system (copyright 1992, Gaussian, Inc.),
 the Gaussian 90(TM) system (copyright 1990, Gaussian, Inc.),
 the Gaussian 88(TM) system (copyright 1988, Gaussian, Inc.),
 the Gaussian 86(TM) system (copyright 1986, Carnegie Mellon
 University), and the Gaussian 82(TM) system (copyright 1983,
 Carnegie Mellon University). Gaussian is a federally registered
 trademark of Gaussian, Inc.
  
 This software contains proprietary and confidential information,
 including trade secrets, belonging to Gaussian, Inc.
  
 This software is provided under written license and may be
 used, copied, transmitted, or stored only in accord with that
 written license.
  
 The following legend is applicable only to US Government
 contracts under FAR:
  
                    RESTRICTED RIGHTS LEGEND
  
 Use, reproduction and disclosure by the US Government is
 subject to restrictions as set forth in subparagraphs (a)
 and (c) of the Commercial Computer Software - Restricted
 Rights clause in FAR 52.227-19.
  
 Gaussian, Inc.
 340 Quinnipiac St., Bldg. 40, Wallingford CT 06492
  
  
 ---------------------------------------------------------------
 Warning -- This program may not be used in any manner that
 competes with the business of Gaussian, Inc. or will provide
 assistance to any competitor of Gaussian, Inc.  The licensee
 of this program is prohibited from giving any competitor of
 Gaussian, Inc. access to this program.  By using this program,
 the user acknowledges that Gaussian, Inc. is engaged in the
 business of creating and licensing software in the field of
 computational chemistry and represents and warrants to the
 licensee that it is not a competitor of Gaussian, Inc. and that
 it will not use this program in any manner prohibited above.
 ---------------------------------------------------------------
  

 Cite this work as:
 Gaussian 16, Revision A.03,
 M. J. Frisch, G. W. Trucks, H. B. Schlegel, G. E. Scuseria, 
 M. A. Robb, J. R. Cheeseman, G. Scalmani, V. Barone, 
 G. A. Petersson, H. Nakatsuji, X. Li, M. Caricato, A. V. Marenich, 
 J. Bloino, B. G. Janesko, R. Gomperts, B. Mennucci, H. P. Hratchian, 
 J. V. Ortiz, A. F. Izmaylov, J. L. Sonnenberg, D. Williams-Young, 
 F. Ding, F. Lipparini, F. Egidi, J. Goings, B. Peng, A. Petrone, 
 T. Henderson, D. Ranasinghe, V. G. Zakrzewski, J. Gao, N. Rega, 
 G. Zheng, W. Liang, M. Hada, M. Ehara, K. Toyota, R. Fukuda, 
 J. Hasegawa, M. Ishida, T. Nakajima, Y. Honda, O. Kitao, H. Nakai, 
 T. Vreven, K. Throssell, J. A. Montgomery, Jr., J. E. Peralta, 
 F. Ogliaro, M. J. Bearpark, J. J. Heyd, E. N. Brothers, K. N. Kudin, 
 V. N. Staroverov, T. A. Keith, R. Kobayashi, J. Normand, 
 K. Raghavachari, A. P. Rendell, J. C. Burant, S. S. Iyengar, 
 J. Tomasi, M. Cossi, J. M. Millam, M. Klene, C. Adamo, R. Cammi, 
 J. W. Ochterski, R. L. Martin, K. Morokuma, O. Farkas, 
 J. B. Foresman, and D. J. Fox, Gaussian, Inc., Wallingford CT, 2016.
 
 ******************************************
 Gaussian 16:  ES64L-G16RevA.03 25-Dec-2016
                17-Apr-2021 
 ******************************************
 %RWF=temp18_43246,70GB
 %nprocshared=48
 Will use up to   48 processors via shared memory.
 Default route: MaxDisk=80GB
 ----------------------------------------------------------------------
 #P M062X/GEN Integral=UltraFineGrid SCF=NoSymm Stable=(RExt, Opt) IOp(
 1/33=1)
 ----------------------------------------------------------------------
 1/33=1,38=1,172=1/1;
 2/12=2,17=6,18=5,40=1/2;
 3/5=7,11=2,25=1,30=1,74=-55,75=-5/1,2,3;
 4/9=2/1;
 5/5=2,38=5/2;
 6/7=2,8=2,9=2,10=2,28=1/1;
 8/6=1,10=90,11=11/1;
 9/8=-3,42=1,46=1/14;
 5/5=2,8=3,17=40,38=5/8(-2);
 6/7=2,8=2,9=2,10=2,28=1/1;
 99/5=1,9=1/99;
 Leave Link    1 at Sat Apr 17 09:23:26 2021, MaxMem=           0 cpu:               8.2 elap:               0.2
 (Enter /s/ls4/users/knvvv/bin/g16sse/l101.exe)
 ONIOM data not found on unit 2.
 ----------------------
 Database calculations.
 ----------------------
 TstMul:  ICh=     0
 TstMul:  Mul=     1
 TstMul:  ICh=     0
 TstMul:  Mul=     1
 Symbolic Z-matrix:
 Charge =  0 Multiplicity = 1
 N                    -0.05007   2.63415   3.30558 
 N                    -0.50844   1.63148   4.17868 
 C                    -0.09452   1.94988   5.44234 
 N                     0.42874   3.22281   5.35659 
 C                     0.45186   3.65442   4.04715 
 O                    -0.18275   1.27341   6.46265 
 O                     0.85213   4.74727   3.64104 
 H                    -0.60237   2.84058   2.4638 
 H                    -0.45571   0.66743   3.85012 
 H                     0.84551   3.73518   6.1493 
 N                     1.19605   2.12235   8.78165 
 N                     0.73768   3.12502   9.65476 
 C                     1.1516    2.80662   10.91842 
 N                     1.67486   1.53369   10.83266 
 C                     1.69799   1.10208   9.52322 
 O                     1.06337   3.48309   11.93872 
 O                     2.09825   0.00923   9.11712 
 H                     0.64376   1.91592   7.93987 
 H                     0.79042   4.08907   9.3262 
 H                     2.09164   1.02132   11.62538 
 N                     2.54233   6.87885   7.64657 
 N                     3.0007    7.88152   6.77347 
 C                     2.58678   7.56312   5.50981 
 N                     2.06352   6.29019   5.59556 
 C                     2.04039   5.85858   6.905 
 O                     2.67501   8.23959   4.48951 
 O                     1.64013   4.76573   7.31111 
 H                     3.09462   6.67242   8.48836 
 H                     2.94796   8.84557   7.10203 
 H                     1.64674   5.77782   4.80285 
 
 RdStrC is calling ZToCFu for IStruc=1 NZ=    30.
 PrtBox:  NBox=     6 Levels=  2 BoxLen=    8.00 SMaxX=       17.91
          Shift=            1.138309           -0.017438           -4.655900
 Box      1 Number                   0 centers from      1 to      9:
 Box      2 Number                   1 centers from     10 to     17:
 Box      3 Number                   2 centers from     18 to     22:
 Box      4 Number                   3 centers from     23 to     27:
 Box      5 Number                   8 centers from     28 to     29:
 Box      6 Number                  17 centers from     30 to     30:
 After GenITR:
 ITRead=  0  0  0  0  0  0  0  0  0  0  0  0  0  0  0  0  0  0  0  0
 ITRead=  0  0  0  0  0  0  0  0  0  0
 MicOpt= -1 -1 -1 -1 -1 -1 -1 -1 -1 -1 -1 -1 -1 -1 -1 -1 -1 -1 -1 -1
 MicOpt= -1 -1 -1 -1 -1 -1 -1 -1 -1 -1
 ITRead=  0  0  0  0  0  0  0  0  0  0  0  0  0  0  0  0  0  0  0  0
 ITRead=  0  0  0  0  0  0  0  0  0  0
 MicOpt= -1 -1 -1 -1 -1 -1 -1 -1 -1 -1 -1 -1 -1 -1 -1 -1 -1 -1 -1 -1
 MicOpt= -1 -1 -1 -1 -1 -1 -1 -1 -1 -1
 NAtoms=     30 NQM=       30 NQMF=       0 NMMI=      0 NMMIF=      0
                NMic=       0 NMicF=      0.
                    Isotopes and Nuclear Properties:
 (Nuclear quadrupole moments (NQMom) in fm**2, nuclear magnetic moments (NMagM)
  in nuclear magnetons)

  Atom         1           2           3           4           5           6           7           8           9          10
 IAtWgt=          14          14          12          14          12          16          16           1           1           1
 AtmWgt=  14.0030740  14.0030740  12.0000000  14.0030740  12.0000000  15.9949146  15.9949146   1.0078250   1.0078250   1.0078250
 NucSpn=           2           2           0           2           0           0           0           1           1           1
 AtZEff=  -0.0000000  -0.0000000  -0.0000000  -0.0000000  -0.0000000  -0.0000000  -0.0000000  -0.0000000  -0.0000000  -0.0000000
 NQMom=    2.0440000   2.0440000   0.0000000   2.0440000   0.0000000   0.0000000   0.0000000   0.0000000   0.0000000   0.0000000
 NMagM=    0.4037610   0.4037610   0.0000000   0.4037610   0.0000000   0.0000000   0.0000000   2.7928460   2.7928460   2.7928460
 AtZNuc=   7.0000000   7.0000000   6.0000000   7.0000000   6.0000000   8.0000000   8.0000000   1.0000000   1.0000000   1.0000000

  Atom        11          12          13          14          15          16          17          18          19          20
 IAtWgt=          14          14          12          14          12          16          16           1           1           1
 AtmWgt=  14.0030740  14.0030740  12.0000000  14.0030740  12.0000000  15.9949146  15.9949146   1.0078250   1.0078250   1.0078250
 NucSpn=           2           2           0           2           0           0           0           1           1           1
 AtZEff=  -0.0000000  -0.0000000  -0.0000000  -0.0000000  -0.0000000  -0.0000000  -0.0000000  -0.0000000  -0.0000000  -0.0000000
 NQMom=    2.0440000   2.0440000   0.0000000   2.0440000   0.0000000   0.0000000   0.0000000   0.0000000   0.0000000   0.0000000
 NMagM=    0.4037610   0.4037610   0.0000000   0.4037610   0.0000000   0.0000000   0.0000000   2.7928460   2.7928460   2.7928460
 AtZNuc=   7.0000000   7.0000000   6.0000000   7.0000000   6.0000000   8.0000000   8.0000000   1.0000000   1.0000000   1.0000000

  Atom        21          22          23          24          25          26          27          28          29          30
 IAtWgt=          14          14          12          14          12          16          16           1           1           1
 AtmWgt=  14.0030740  14.0030740  12.0000000  14.0030740  12.0000000  15.9949146  15.9949146   1.0078250   1.0078250   1.0078250
 NucSpn=           2           2           0           2           0           0           0           1           1           1
 AtZEff=  -0.0000000  -0.0000000  -0.0000000  -0.0000000  -0.0000000  -0.0000000  -0.0000000  -0.0000000  -0.0000000  -0.0000000
 NQMom=    2.0440000   2.0440000   0.0000000   2.0440000   0.0000000   0.0000000   0.0000000   0.0000000   0.0000000   0.0000000
 NMagM=    0.4037610   0.4037610   0.0000000   0.4037610   0.0000000   0.0000000   0.0000000   2.7928460   2.7928460   2.7928460
 AtZNuc=   7.0000000   7.0000000   6.0000000   7.0000000   6.0000000   8.0000000   8.0000000   1.0000000   1.0000000   1.0000000
 No MM parameters found.
 Leave Link  101 at Sat Apr 17 09:23:26 2021, MaxMem=   104857600 cpu:              10.5 elap:               0.3
 (Enter /s/ls4/users/knvvv/bin/g16sse/l202.exe)
                          Input orientation:                          
 ---------------------------------------------------------------------
 Center     Atomic      Atomic             Coordinates (Angstroms)
 Number     Number       Type             X           Y           Z
 ---------------------------------------------------------------------
      1          7           0       -0.050072    2.634150    3.305578
      2          7           0       -0.508443    1.631479    4.178684
      3          6           0       -0.094523    1.949880    5.442343
      4          7           0        0.428735    3.222814    5.356588
      5          6           0        0.451861    3.654419    4.047148
      6          8           0       -0.182753    1.273410    6.462645
      7          8           0        0.852126    4.747272    3.641043
      8          1           0       -0.602367    2.840582    2.463796
      9          1           0       -0.455705    0.667432    3.850119
     10          1           0        0.845509    3.735184    6.149304
     11          7           0        1.196054    2.122350    8.781654
     12          7           0        0.737684    3.125021    9.654759
     13          6           0        1.151603    2.806620   10.918419
     14          7           0        1.674861    1.533686   10.832663
     15          6           0        1.697988    1.102081    9.523224
     16          8           0        1.063373    3.483090   11.938721
     17          8           0        2.098252    0.009228    9.117118
     18          1           0        0.643759    1.915918    7.939872
     19          1           0        0.790422    4.089068    9.326195
     20          1           0        2.091636    1.021316   11.625380
     21          7           0        2.542325    6.878850    7.646573
     22          7           0        3.000696    7.881521    6.773467
     23          6           0        2.586777    7.563120    5.509808
     24          7           0        2.063518    6.290186    5.595564
     25          6           0        2.040392    5.858581    6.905003
     26          8           0        2.675006    8.239590    4.489506
     27          8           0        1.640127    4.765728    7.311109
     28          1           0        3.094620    6.672418    8.488355
     29          1           0        2.947958    8.845568    7.102032
     30          1           0        1.646744    5.777816    4.802847
 ---------------------------------------------------------------------
                    Distance matrix (angstroms):
                    1          2          3          4          5
     1  N    0.000000
     2  N    1.406331   0.000000
     3  C    2.244096   1.367312   0.000000
     4  N    2.186875   2.190458   1.378954   0.000000
     5  C    1.357502   2.243161   2.269484   1.378931   0.000000
     6  O    3.440391   2.334687   1.227360   2.323242   3.450589
     7  O    2.322021   3.442146   3.459224   2.333737   1.232664
     8  H    1.027736   2.100379   3.150079   3.094757   2.068993
     9  H    2.080635   1.019864   2.076127   3.095426   3.128033
    10  H    3.178226   3.184667   2.137935   1.031805   2.140220
    11  N    5.639342   4.932910   3.584178   3.678434   5.031561
    12  N    6.416667   5.811273   4.451738   4.310370   5.639792
    13  C    7.709028   7.039939   5.681042   5.624031   6.958647
    14  N    7.800219   7.003700   5.688540   5.864587   7.213630
    15  C    6.637927   5.806265   4.537119   4.844519   6.168847
    16  O    8.745949   8.131251   6.774539   6.617778   7.917084
    17  O    6.729005   5.815040   4.698762   5.220729   6.457756
    18  H    4.740669   3.943984   2.604585   2.903028   4.267612
    19  H    6.250684   5.850099   4.521455   4.079092   5.307719
    20  H    8.741124   7.911131   6.623554   6.849057   8.188510
    21  N    6.601684   6.990590   6.008855   4.803946   5.265250
    22  N    6.990590   7.622990   6.821777   5.506912   5.638951
    23  C    6.008856   6.821777   6.221124   4.849627   4.687770
    24  N    4.803946   5.506912   4.849626   3.484020   3.455763
    25  C    5.265250   5.638951   4.687769   3.455763   3.943234
    26  O    6.344186   7.341532   6.938202   5.564675   5.114865
    27  O    4.841970   4.924628   3.798723   2.769153   3.646975
    28  H    7.284084   7.547608   6.461516   5.367930   5.984715
    29  H    7.872926   8.516792   7.717627   6.403782   6.520034
    30  H    3.873453   4.714501   4.253711   2.884131   2.551008
                    6          7          8          9         10
     6  O    0.000000
     7  O    4.593488   0.000000
     8  H    4.315426   2.671503   0.000000
     9  H    2.695738   4.289432   2.581856   0.000000
    10  H    2.686231   2.704762   4.059511   4.048520   0.000000
    11  N    2.828358   5.782247   6.607988   5.400475   3.106989
    12  N    3.803322   6.229733   7.320286   6.415432   3.559795
    13  C    4.897465   7.537640   8.634710   7.557806   4.868304
    14  N    4.755579   7.919812   8.771071   7.351573   5.241018
    15  C    3.596343   6.971582   7.625585   6.083702   4.363862
    16  O    6.035141   8.396085   9.641665   8.698334   5.798997
    17  O    3.721205   7.347740   7.718588   5.890434   4.925448
    18  H    1.810563   5.151690   5.691682   4.415158   2.560579
    19  H    4.132181   5.723460   7.112742   6.576309   3.197015
    20  H    5.647143   8.897683   9.721214   8.189558   6.237413
    21  N    6.344186   4.841969   7.284084   7.872926   3.873453
    22  N    7.341532   4.924627   7.547608   8.516792   4.714501
    23  C    6.938202   3.798723   6.461516   7.717628   4.253712
    24  N    5.564675   2.769153   5.367931   6.403782   2.884131
    25  C    5.114865   3.646974   5.984715   6.520034   2.551008
    26  O    7.783812   4.029772   6.632794   8.218743   5.137282
    27  O    4.029773   3.753754   5.677271   5.759079   1.744485
    28  H    6.632794   5.677270   8.040273   8.377225   4.376871
    29  H    8.218743   5.759079   8.377225   9.436195   5.607496
    30  H    5.137282   1.744485   4.376871   5.607496   2.574348
                   11         12         13         14         15
    11  N    0.000000
    12  N    1.406330   0.000000
    13  C    2.244096   1.367313   0.000000
    14  N    2.186874   2.190458   1.378954   0.000000
    15  C    1.357502   2.243161   2.269484   1.378930   0.000000
    16  O    3.440391   2.334688   1.227360   2.323243   3.450589
    17  O    2.322021   3.442146   3.459224   2.333737   1.232664
    18  H    1.027736   2.100378   3.150079   3.094756   2.068993
    19  H    2.080635   1.019864   2.076127   3.095425   3.128033
    20  H    3.178226   3.184668   2.137935   1.031807   2.140220
    21  N    5.071996   4.623935   5.405751   6.282869   6.132356
    22  N    6.360629   6.003945   6.808406   7.650485   7.430950
    23  C    6.499313   6.347951   7.344187   8.094347   7.657838
    24  N    5.317379   5.315371   6.426477   7.085376   6.517404
    25  C    4.265460   4.090300   5.119758   5.853618   5.440277
    26  O    7.617773   7.522757   8.553879   9.284669   8.788454
    27  O    3.057311   2.999836   4.133938   4.780026   4.280083
    28  H    4.938997   4.415843   4.962350   5.823922   5.835254
    29  H    7.147864   6.642769   7.366179   8.306744   8.208909
    30  H    5.421850   5.603995   6.817140   7.373745   6.644327
                   16         17         18         19         20
    16  O    0.000000
    17  O    4.593488   0.000000
    18  H    4.315426   2.671502   0.000000
    19  H    2.695738   4.289432   2.581856   0.000000
    20  H    2.686231   2.704763   4.059511   4.048520   0.000000
    21  N    5.669305   7.039276   5.321773   3.697726   7.095402
    22  N    7.055442   8.263177   6.519515   5.077837   8.451619
    23  C    7.765200   8.385262   6.447590   5.464498   8.968868
    24  N    7.008261   7.200902   5.161949   4.514787   8.007525
    25  C    5.651180   6.253937   4.308843   3.248965   6.758973
    26  O    8.984011   9.459720   7.484639   6.646206  10.166833
    27  O    4.836590   5.108409   3.083749   2.289201   5.730394
    28  H    5.118867   6.766550   5.378833   3.561601   6.540784
    29  H    7.463336   9.102938   7.350603   5.676809   9.078154
    30  H    7.518430   7.217576   5.075545   4.903655   8.328816
                   21         22         23         24         25
    21  N    0.000000
    22  N    1.406331   0.000000
    23  C    2.244096   1.367312   0.000000
    24  N    2.186874   2.190458   1.378954   0.000000
    25  C    1.357502   2.243161   2.269484   1.378930   0.000000
    26  O    3.440391   2.334687   1.227360   2.323243   3.450589
    27  O    2.322021   3.442147   3.459224   2.333737   1.232665
    28  H    1.027736   2.100379   3.150079   3.094756   2.068993
    29  H    2.080635   1.019864   2.076127   3.095425   3.128033
    30  H    3.178226   3.184667   2.137935   1.031806   2.140220
                   26         27         28         29         30
    26  O    0.000000
    27  O    4.593488   0.000000
    28  H    4.315426   2.671502   0.000000
    29  H    2.695738   4.289432   2.581856   0.000000
    30  H    2.686231   2.704763   4.059511   4.048520   0.000000
 Stoichiometry    C6H9N9O6
 Framework group  C1[X(C6H9N9O6)]
 Deg. of freedom    84
 Full point group                 C1      NOp   1
 Largest Abelian subgroup         C1      NOp   1
 Largest concise Abelian subgroup C1      NOp   1
                         Standard orientation:                         
 ---------------------------------------------------------------------
 Center     Atomic      Atomic             Coordinates (Angstroms)
 Number     Number       Type             X           Y           Z
 ---------------------------------------------------------------------
      1          7           0       -1.831401    3.697174   -0.064953
      2          7           0       -0.479010    3.981885   -0.325230
      3          6           0        0.211950    2.802116   -0.308993
      4          7           0       -0.742213    1.808958   -0.240264
      5          6           0       -2.002255    2.350888   -0.098638
      6          8           0        1.426128    2.633072   -0.369067
      7          8           0       -3.063906    1.729835   -0.017088
      8          1           0       -2.548227    4.311454   -0.471231
      9          1           0       -0.084362    4.812690    0.115381
     10          1           0       -0.529806    0.800446   -0.191188
     11          7           0        2.467723    0.053346    0.140542
     12          7           0        2.483750   -0.995141   -0.796571
     13          6           0        3.599076   -1.751549   -0.565403
     14          7           0        4.341484   -1.052154    0.362600
     15          6           0        3.656688    0.063657    0.795576
     16          8           0        3.911652   -2.820060   -1.082118
     17          8           0        4.051594    0.895715    1.614838
     18          1           0        2.026030    0.942108   -0.126386
     19          1           0        1.593512   -1.446179   -1.006725
     20          1           0        5.236781   -1.379396    0.757545
     21          7           0       -1.652206   -2.901727    0.003160
     22          7           0       -3.004598   -3.186438    0.263437
     23          6           0       -3.695557   -2.006670    0.247201
     24          7           0       -2.741394   -1.013512    0.178471
     25          6           0       -1.481353   -1.555441    0.036845
     26          8           0       -4.909735   -1.837625    0.307274
     27          8           0       -0.419701   -0.934388   -0.044705
     28          1           0       -0.935380   -3.516007    0.409438
     29          1           0       -3.399245   -4.017243   -0.177174
     30          1           0       -2.953802   -0.004999    0.129395
 ---------------------------------------------------------------------
 Rotational constants (GHZ):           0.3207731           0.1979189           0.1282683
 Leave Link  202 at Sat Apr 17 09:23:27 2021, MaxMem=   104857600 cpu:               5.7 elap:               0.1
 (Enter /s/ls4/users/knvvv/bin/g16sse/l301.exe)
 General basis read from cards:  (5D, 7F)
 Centers:       8      9     10     18     19     20     28     29     30
 S 4 1.00
     Exponent=  1.9069169000D+02 Coefficients=  7.0815167000D-04
     Exponent=  2.8605532000D+01 Coefficients=  5.4678827000D-03
     Exponent=  6.5095943000D+00 Coefficients=  2.7966605000D-02
     Exponent=  1.8412455000D+00 Coefficients=  1.0764538000D-01
 S 1 1.00
     Exponent=  5.9853725000D-01 Coefficients=  1.0000000000D+00
 S 1 1.00
     Exponent=  2.1397624000D-01 Coefficients=  1.0000000000D+00
 S 1 1.00
     Exponent=  8.0316286000D-02 Coefficients=  1.0000000000D+00
 P 1 1.00
     Exponent=  2.2920000000D+00 Coefficients=  1.0000000000D+00
 P 1 1.00
     Exponent=  8.3800000000D-01 Coefficients=  1.0000000000D+00
 P 1 1.00
     Exponent=  2.9200000000D-01 Coefficients=  1.0000000000D+00
 P 1 1.00
     Exponent=  8.4063199228D-02 Coefficients=  1.0000000000D+00
 D 1 1.00
     Exponent=  2.0620000000D+00 Coefficients=  1.0000000000D+00
 D 1 1.00
     Exponent=  6.6200000000D-01 Coefficients=  1.0000000000D+00
 F 1 1.00
     Exponent=  1.3970000000D+00 Coefficients=  1.0000000000D+00
 ****
 Centers:       3      5     13     15     23     25
 S 8 1.00
     Exponent=  6.7025071029D+04 Coefficients=  3.8736308501D-05
     Exponent=  1.0039986538D+04 Coefficients=  3.0107917575D-04
     Exponent=  2.2849316911D+03 Coefficients=  1.5787918095D-03
     Exponent=  6.4714122130D+02 Coefficients=  6.6087087195D-03
     Exponent=  2.1109472335D+02 Coefficients=  2.3367123250D-02
     Exponent=  7.6177643862D+01 Coefficients=  7.0420716898D-02
     Exponent=  2.9633839163D+01 Coefficients=  1.7360344953D-01
     Exponent=  1.2187785081D+01 Coefficients=  3.2292305648D-01
 S 2 1.00
     Exponent=  5.3026006299D+01 Coefficients=  7.4897404492D-02
     Exponent=  1.5258502776D+01 Coefficients=  7.6136220983D-01
 S 1 1.00
     Exponent=  5.2403957464D+00 Coefficients=  1.0000000000D+00
 S 1 1.00
     Exponent=  2.2905022379D+00 Coefficients=  1.0000000000D+00
 S 1 1.00
     Exponent=  6.9673283006D-01 Coefficients=  1.0000000000D+00
 S 1 1.00
     Exponent=  2.7599337363D-01 Coefficients=  1.0000000000D+00
 S 1 1.00
     Exponent=  1.0739884389D-01 Coefficients=  1.0000000000D+00
 S 1 1.00
     Exponent=  4.4981404899D-02 Coefficients=  1.0000000000D+00
 P 5 1.00
     Exponent=  1.0512555082D+02 Coefficients=  8.4647553844D-04
     Exponent=  2.4884461066D+01 Coefficients=  6.6274038534D-03
     Exponent=  7.8637230826D+00 Coefficients=  3.0120390419D-02
     Exponent=  2.8407001835D+00 Coefficients=  9.9951435476D-02
     Exponent=  1.1227137335D+00 Coefficients=  2.3826299282D-01
 P 1 1.00
     Exponent=  4.6050725555D-01 Coefficients=  1.0000000000D+00
 P 1 1.00
     Exponent=  1.8937530913D-01 Coefficients=  1.0000000000D+00
 P 1 1.00
     Exponent=  7.5983791611D-02 Coefficients=  1.0000000000D+00
 D 1 1.00
     Exponent=  1.8480000000D+00 Coefficients=  1.0000000000D+00
 D 1 1.00
     Exponent=  6.4900000000D-01 Coefficients=  1.0000000000D+00
 D 1 1.00
     Exponent=  2.2800000000D-01 Coefficients=  1.0000000000D+00
 D 1 1.00
     Exponent=  7.6889830417D-02 Coefficients=  1.0000000000D+00
 F 1 1.00
     Exponent=  1.4190000000D+00 Coefficients=  1.0000000000D+00
 F 1 1.00
     Exponent=  4.8500000000D-01 Coefficients=  1.0000000000D+00
 G 1 1.00
     Exponent=  1.0110000000D+00 Coefficients=  1.0000000000D+00
 ****
 Centers:       1      2      4     11     12     14     21     22     24
 S 8 1.00
     Exponent=  9.0726889210D+04 Coefficients=  3.9257887368D-05
     Exponent=  1.3590528801D+04 Coefficients=  3.0513316455D-04
     Exponent=  3.0929883781D+03 Coefficients=  1.6000560446D-03
     Exponent=  8.7599876362D+02 Coefficients=  6.6982937306D-03
     Exponent=  2.8574469982D+02 Coefficients=  2.3690078765D-02
     Exponent=  1.0311913417D+02 Coefficients=  7.1455405268D-02
     Exponent=  4.0128556777D+01 Coefficients=  1.7632774876D-01
     Exponent=  1.6528095704D+01 Coefficients=  3.2677592815D-01
 S 2 1.00
     Exponent=  6.9390960983D+01 Coefficients=  8.0052094386D-02
     Exponent=  2.0428200596D+01 Coefficients=  7.8268063538D-01
 S 1 1.00
     Exponent=  7.1292587972D+00 Coefficients=  1.0000000000D+00
 S 1 1.00
     Exponent=  3.1324304893D+00 Coefficients=  1.0000000000D+00
 S 1 1.00
     Exponent=  9.8755778723D-01 Coefficients=  1.0000000000D+00
 S 1 1.00
     Exponent=  3.8765721307D-01 Coefficients=  1.0000000000D+00
 S 1 1.00
     Exponent=  1.4909883075D-01 Coefficients=  1.0000000000D+00
 S 1 1.00
     Exponent=  6.2151630318D-02 Coefficients=  1.0000000000D+00
 P 5 1.00
     Exponent=  1.5005742670D+02 Coefficients= -8.6216165986D-04
     Exponent=  3.5491599483D+01 Coefficients= -6.8571273236D-03
     Exponent=  1.1247864223D+01 Coefficients= -3.1795688855D-02
     Exponent=  4.0900305195D+00 Coefficients= -1.0537396822D-01
     Exponent=  1.6220573146D+00 Coefficients= -2.4519708041D-01
 P 1 1.00
     Exponent=  6.6442261530D-01 Coefficients=  1.0000000000D+00
 P 1 1.00
     Exponent=  2.7099770070D-01 Coefficients=  1.0000000000D+00
 P 1 1.00
     Exponent=  1.0688749984D-01 Coefficients=  1.0000000000D+00
 D 1 1.00
     Exponent=  2.8370000000D+00 Coefficients=  1.0000000000D+00
 D 1 1.00
     Exponent=  9.6800000000D-01 Coefficients=  1.0000000000D+00
 D 1 1.00
     Exponent=  3.3500000000D-01 Coefficients=  1.0000000000D+00
 D 1 1.00
     Exponent=  1.0825280010D-01 Coefficients=  1.0000000000D+00
 F 1 1.00
     Exponent=  2.0270000000D+00 Coefficients=  1.0000000000D+00
 F 1 1.00
     Exponent=  6.8500000000D-01 Coefficients=  1.0000000000D+00
 G 1 1.00
     Exponent=  1.4270000000D+00 Coefficients=  1.0000000000D+00
 ****
 Centers:       6      7     16     17     26     27
 S 8 1.00
     Exponent=  1.1650646908D+05 Coefficients=  4.0383857939D-05
     Exponent=  1.7504349724D+04 Coefficients=  3.1255139004D-04
     Exponent=  3.9934513230D+03 Coefficients=  1.6341473495D-03
     Exponent=  1.1330063186D+03 Coefficients=  6.8283224757D-03
     Exponent=  3.6999569594D+02 Coefficients=  2.4124410221D-02
     Exponent=  1.3362074349D+02 Coefficients=  7.2730206154D-02
     Exponent=  5.2035643649D+01 Coefficients=  1.7934429892D-01
     Exponent=  2.1461939313D+01 Coefficients=  3.3059588895D-01
 S 2 1.00
     Exponent=  8.9835051252D+01 Coefficients=  9.6468652996D-02
     Exponent=  2.6428010844D+01 Coefficients=  9.4117481120D-01
 S 1 1.00
     Exponent=  9.2822824649D+00 Coefficients=  1.0000000000D+00
 S 1 1.00
     Exponent=  4.0947728533D+00 Coefficients=  1.0000000000D+00
 S 1 1.00
     Exponent=  1.3255349078D+00 Coefficients=  1.0000000000D+00
 S 1 1.00
     Exponent=  5.1877230787D-01 Coefficients=  1.0000000000D+00
 S 1 1.00
     Exponent=  1.9772676454D-01 Coefficients=  1.0000000000D+00
 S 1 1.00
     Exponent=  6.9638535104D-02 Coefficients=  1.0000000000D+00
 P 5 1.00
     Exponent=  1.9115255810D+02 Coefficients=  2.5115697705D-03
     Exponent=  4.5233356739D+01 Coefficients=  2.0039240864D-02
     Exponent=  1.4353465922D+01 Coefficients=  9.3609064762D-02
     Exponent=  5.2422371832D+00 Coefficients=  3.0618127124D-01
     Exponent=  2.0792418599D+00 Coefficients=  6.7810501439D-01
 P 1 1.00
     Exponent=  8.4282371424D-01 Coefficients=  1.0000000000D+00
 P 1 1.00
     Exponent=  3.3617694891D-01 Coefficients=  1.0000000000D+00
 P 1 1.00
     Exponent=  1.2863997974D-01 Coefficients=  1.0000000000D+00
 P 1 1.00
     Exponent=  4.3598162776D-02 Coefficients=  1.0000000000D+00
 D 1 1.00
     Exponent=  3.7750000000D+00 Coefficients=  1.0000000000D+00
 D 1 1.00
     Exponent=  1.3000000000D+00 Coefficients=  1.0000000000D+00
 D 1 1.00
     Exponent=  4.4400000000D-01 Coefficients=  1.0000000000D+00
 D 1 1.00
     Exponent=  1.2546378695D-01 Coefficients=  1.0000000000D+00
 F 1 1.00
     Exponent=  2.6660000000D+00 Coefficients=  1.0000000000D+00
 F 1 1.00
     Exponent=  8.5900000000D-01 Coefficients=  1.0000000000D+00
 G 1 1.00
     Exponent=  1.8460000000D+00 Coefficients=  1.0000000000D+00
 ****
 Ernie: Thresh=  0.10000D-02 Tol=  0.10000D-05 Strict=F.
 There are  2019 symmetry adapted cartesian basis functions of A   symmetry.
 There are  1638 symmetry adapted basis functions of A   symmetry.
  1638 basis functions,  2466 primitive gaussians,  2019 cartesian basis functions
    78 alpha electrons       78 beta electrons
       nuclear repulsion energy      1700.5593364168 Hartrees.
 IExCor= 4336 DFT=T Ex+Corr=M062X ExCW=0 ScaHFX=  0.540000
 ScaDFX=  1.000000  1.000000  1.000000  1.000000 ScalE2=  1.000000  1.000000
 IRadAn=      5 IRanWt=     -1 IRanGd=            0 ICorTp=0 IEmpDi=  4
 NAtoms=   30 NActive=   30 NUniq=   30 SFac= 1.00D+00 NAtFMM=   60 NAOKFM=F Big=F
 Integral buffers will be    131072 words long.
 Raffenetti 2 integral format.
 Two-electron integral symmetry is turned on.
 Leave Link  301 at Sat Apr 17 09:23:27 2021, MaxMem=   104857600 cpu:               8.9 elap:               0.2
 (Enter /s/ls4/users/knvvv/bin/g16sse/l302.exe)
 NPDir=0 NMtPBC=     1 NCelOv=     1 NCel=       1 NClECP=     1 NCelD=      1
         NCelK=      1 NCelE2=     1 NClLst=     1 CellRange=     0.0.
 One-electron integrals computed using PRISM.
 One-electron integral symmetry used in STVInt
 PrsmSu:  requested number of processors reduced to:   3 ShMem   1 Linda.
 PrsmSu:  requested number of processors reduced to:  12 ShMem   1 Linda.
 NBasis=  1638 RedAO= T EigKep=  1.15D-06  NBF=  1638
 NBsUse=  1638 1.00D-06 EigRej= -1.00D+00 NBFU=  1638
 Precomputing XC quadrature grid using
 IXCGrd= 4 IRadAn=           5 IRanWt=          -1 IRanGd=           0 AccXCQ= 0.00D+00.
 Generated NRdTot=       0 NPtTot=           0 NUsed=           0 NTot=          32
 NSgBfM=  1951  1951  1951  1951  1951 MxSgAt=    30 MxSgA2=    30.
 Leave Link  302 at Sat Apr 17 09:24:32 2021, MaxMem=   104857600 cpu:            3056.0 elap:              65.2
 (Enter /s/ls4/users/knvvv/bin/g16sse/l303.exe)
 DipDrv:  MaxL=1.
 Leave Link  303 at Sat Apr 17 09:25:17 2021, MaxMem=   104857600 cpu:            2107.5 elap:              44.9
 (Enter /s/ls4/users/knvvv/bin/g16sse/l401.exe)
 SCF N**3 symmetry information disabled.
 ExpMin= 4.36D-02 ExpMax= 1.17D+05 ExpMxC= 1.13D+03 IAcc=3 IRadAn=         5 AccDes= 0.00D+00
 Harris functional with IExCor= 1009 and IRadAn=       5 diagonalized for initial guess.
 HarFok:  IExCor= 1009 AccDes= 0.00D+00 IRadAn=         5 IDoV= 1 UseB2=F ITyADJ=14
 ICtDFT=  3500011 ScaDFX=  1.000000  1.000000  1.000000  1.000000
 CalDSu:  requested number of processors reduced to:  20 ShMem   1 Linda.
 FoFCou: FMM=F IPFlag=           0 FMFlag=      100000 FMFlg1=           0
         NFxFlg=           0 DoJE=T BraDBF=F KetDBF=T FulRan=T
         wScrn=  0.000000 ICntrl=       500 IOpCl=  0 I1Cent=   200000004 NGrid=           0
         NMat0=    1 NMatS0=      1 NMatT0=    0 NMatD0=    1 NMtDS0=    0 NMtDT0=    0
 Petite list used in FoFCou.
 CoulSu:  requested number of processors reduced to:   9 ShMem   1 Linda.
 CoulSu:  requested number of processors reduced to:  10 ShMem   1 Linda.
 CoulSu:  requested number of processors reduced to:  19 ShMem   1 Linda.
 CoulSu:  requested number of processors reduced to:  19 ShMem   1 Linda.
 Harris En= -1177.69996053312    
 JPrj=0 DoOrth=F DoCkMO=F.
 Leave Link  401 at Sat Apr 17 09:26:05 2021, MaxMem=   104857600 cpu:            1817.6 elap:              47.7
 (Enter /s/ls4/users/knvvv/bin/g16sse/l502.exe)
 Integral symmetry usage will be decided dynamically.
 Closed shell SCF:
 Using DIIS extrapolation, IDIIS=  1040.
 NGot=   104857600 LenX=    96592668 LenY=    92514288
 Requested convergence on RMS density matrix=1.00D-08 within 128 cycles.
 Requested convergence on MAX density matrix=1.00D-06.
 Requested convergence on             energy=1.00D-06.
 No special actions if energy rises.
 Fock matrices will be formed incrementally for  20 cycles.

 Cycle   1  Pass 1  IDiag  1:
 FoFJK:  IHMeth= 1 ICntrl=       0 DoSepK=F KAlg= 0 I1Cent=           0 FoldK=F
 IRaf= 730000000 NMat=       1 IRICut=       1 DoRegI=T DoRafI=F ISym2E= 0 IDoP0=0 IntGTp=1.
 FoFCou: FMM=F IPFlag=           0 FMFlag=      100000 FMFlg1=           0
         NFxFlg=           0 DoJE=F BraDBF=F KetDBF=F FulRan=T
         wScrn=  0.000000 ICntrl=         0 IOpCl=  0 I1Cent=           0 NGrid=           0
         NMat0=    1 NMatS0=      1 NMatT0=    0 NMatD0=    1 NMtDS0=    0 NMtDT0=    0
 Symmetry not used in FoFCou.
 CoulSu:  requested number of processors reduced to:  11 ShMem   1 Linda.
 CalDSu:  requested number of processors reduced to:  19 ShMem   1 Linda.
 E= -1177.75770530236    
 DIIS: error= 1.85D-02 at cycle   1 NSaved=   1.
 NSaved= 1 IEnMin= 1 EnMin= -1177.75770530236     IErMin= 1 ErrMin= 1.85D-02
 ErrMax= 1.85D-02  0.00D+00 EMaxC= 1.00D-01 BMatC= 1.39D+00 BMatP= 1.39D+00
 IDIUse=3 WtCom= 8.15D-01 WtEn= 1.85D-01
 Coeff-Com:  0.100D+01
 Coeff-En:   0.100D+01
 Coeff:      0.100D+01
 Gap=     0.311 Goal=   None    Shift=    0.000
 GapD=    0.311 DampG=1.000 DampE=0.500 DampFc=0.5000 IDamp=-1.
 Damping current iteration by 5.00D-01
 RMSDP=1.36D-03 MaxDP=2.05D-01              OVMax= 2.81D-01

 Cycle   2  Pass 1  IDiag  1:
 RMSU=  6.53D-04    CP:  9.38D-01
 CoulSu:  requested number of processors reduced to:  11 ShMem   1 Linda.
 CalDSu:  requested number of processors reduced to:  20 ShMem   1 Linda.
 E= -1177.94288544254     Delta-E=       -0.185180140172 Rises=F Damp=T
 DIIS: error= 1.07D-02 at cycle   2 NSaved=   2.
 NSaved= 2 IEnMin= 2 EnMin= -1177.94288544254     IErMin= 2 ErrMin= 1.07D-02
 ErrMax= 1.07D-02  0.00D+00 EMaxC= 1.00D-01 BMatC= 2.52D-01 BMatP= 1.39D+00
 IDIUse=3 WtCom= 8.93D-01 WtEn= 1.07D-01
 Coeff-Com:  0.524D-01 0.948D+00
 Coeff-En:   0.299D+00 0.701D+00
 Coeff:      0.787D-01 0.921D+00
 Gap=     0.332 Goal=   None    Shift=    0.000
 RMSDP=7.57D-04 MaxDP=6.77D-02 DE=-1.85D-01 OVMax= 1.71D-01

 Cycle   3  Pass 1  IDiag  1:
 RMSU=  6.06D-04    CP:  8.55D-01  1.58D+00
 CoulSu:  requested number of processors reduced to:  11 ShMem   1 Linda.
 CalDSu:  requested number of processors reduced to:  19 ShMem   1 Linda.
 E= -1178.27412231486     Delta-E=       -0.331236872319 Rises=F Damp=F
 DIIS: error= 5.19D-03 at cycle   3 NSaved=   3.
 NSaved= 3 IEnMin= 3 EnMin= -1178.27412231486     IErMin= 3 ErrMin= 5.19D-03
 ErrMax= 5.19D-03  0.00D+00 EMaxC= 1.00D-01 BMatC= 1.13D-01 BMatP= 2.52D-01
 IDIUse=3 WtCom= 9.48D-01 WtEn= 5.19D-02
 Coeff-Com: -0.137D+00 0.427D+00 0.710D+00
 Coeff-En:   0.000D+00 0.000D+00 0.100D+01
 Coeff:     -0.130D+00 0.405D+00 0.725D+00
 Gap=     0.291 Goal=   None    Shift=    0.000
 RMSDP=2.12D-04 MaxDP=1.95D-02 DE=-3.31D-01 OVMax= 6.12D-02

 Cycle   4  Pass 1  IDiag  1:
 RMSU=  2.01D-04    CP:  8.42D-01  1.63D+00  9.28D-01
 CoulSu:  requested number of processors reduced to:  11 ShMem   1 Linda.
 CalDSu:  requested number of processors reduced to:  19 ShMem   1 Linda.
 E= -1178.34648907464     Delta-E=       -0.072366759781 Rises=F Damp=F
 DIIS: error= 1.74D-03 at cycle   4 NSaved=   4.
 NSaved= 4 IEnMin= 4 EnMin= -1178.34648907464     IErMin= 4 ErrMin= 1.74D-03
 ErrMax= 1.74D-03  0.00D+00 EMaxC= 1.00D-01 BMatC= 1.36D-02 BMatP= 1.13D-01
 IDIUse=3 WtCom= 9.83D-01 WtEn= 1.74D-02
 Coeff-Com: -0.638D-01 0.137D+00 0.360D+00 0.566D+00
 Coeff-En:   0.000D+00 0.000D+00 0.538D-01 0.946D+00
 Coeff:     -0.627D-01 0.135D+00 0.355D+00 0.573D+00
 Gap=     0.276 Goal=   None    Shift=    0.000
 RMSDP=7.25D-05 MaxDP=8.28D-03 DE=-7.24D-02 OVMax= 1.38D-02

 Cycle   5  Pass 1  IDiag  1:
 RMSU=  4.97D-05    CP:  8.42D-01  1.65D+00  9.31D-01  7.41D-01
 CoulSu:  requested number of processors reduced to:  11 ShMem   1 Linda.
 CalDSu:  requested number of processors reduced to:  19 ShMem   1 Linda.
 E= -1178.35632455978     Delta-E=       -0.009835485140 Rises=F Damp=F
 DIIS: error= 2.18D-04 at cycle   5 NSaved=   5.
 NSaved= 5 IEnMin= 5 EnMin= -1178.35632455978     IErMin= 5 ErrMin= 2.18D-04
 ErrMax= 2.18D-04  0.00D+00 EMaxC= 1.00D-01 BMatC= 2.27D-04 BMatP= 1.36D-02
 IDIUse=3 WtCom= 9.98D-01 WtEn= 2.18D-03
 Coeff-Com: -0.183D-01 0.363D-01 0.958D-01 0.194D+00 0.692D+00
 Coeff-En:   0.000D+00 0.000D+00 0.000D+00 0.000D+00 0.100D+01
 Coeff:     -0.183D-01 0.362D-01 0.956D-01 0.194D+00 0.692D+00
 Gap=     0.275 Goal=   None    Shift=    0.000
 RMSDP=1.80D-05 MaxDP=2.55D-03 DE=-9.84D-03 OVMax= 3.97D-03

 Cycle   6  Pass 1  IDiag  1:
 RMSU=  1.41D-05    CP:  8.41D-01  1.65D+00  9.29D-01  7.55D-01  1.21D+00
 CoulSu:  requested number of processors reduced to:  11 ShMem   1 Linda.
 CalDSu:  requested number of processors reduced to:  19 ShMem   1 Linda.
 E= -1178.35650671508     Delta-E=       -0.000182155306 Rises=F Damp=F
 DIIS: error= 9.23D-05 at cycle   6 NSaved=   6.
 NSaved= 6 IEnMin= 6 EnMin= -1178.35650671508     IErMin= 6 ErrMin= 9.23D-05
 ErrMax= 9.23D-05  0.00D+00 EMaxC= 1.00D-01 BMatC= 4.01D-05 BMatP= 2.27D-04
 IDIUse=1 WtCom= 1.00D+00 WtEn= 0.00D+00
 Coeff-Com:  0.573D-04-0.108D-02-0.584D-02 0.387D-02 0.295D+00 0.708D+00
 Coeff:      0.573D-04-0.108D-02-0.584D-02 0.387D-02 0.295D+00 0.708D+00
 Gap=     0.275 Goal=   None    Shift=    0.000
 RMSDP=9.53D-06 MaxDP=1.68D-03 DE=-1.82D-04 OVMax= 1.83D-03

 Cycle   7  Pass 1  IDiag  1:
 RMSU=  5.85D-06    CP:  8.40D-01  1.65D+00  9.28D-01  7.66D-01  1.34D+00
                    CP:  1.16D+00
 CoulSu:  requested number of processors reduced to:  11 ShMem   1 Linda.
 CalDSu:  requested number of processors reduced to:  19 ShMem   1 Linda.
 E= -1178.35654008129     Delta-E=       -0.000033366207 Rises=F Damp=F
 DIIS: error= 3.36D-05 at cycle   7 NSaved=   7.
 NSaved= 7 IEnMin= 7 EnMin= -1178.35654008129     IErMin= 7 ErrMin= 3.36D-05
 ErrMax= 3.36D-05  0.00D+00 EMaxC= 1.00D-01 BMatC= 6.46D-06 BMatP= 4.01D-05
 IDIUse=1 WtCom= 1.00D+00 WtEn= 0.00D+00
 Coeff-Com:  0.296D-02-0.632D-02-0.171D-01-0.298D-01 0.417D-01 0.312D+00
 Coeff-Com:  0.696D+00
 Coeff:      0.296D-02-0.632D-02-0.171D-01-0.298D-01 0.417D-01 0.312D+00
 Coeff:      0.696D+00
 Gap=     0.276 Goal=   None    Shift=    0.000
 RMSDP=3.39D-06 MaxDP=7.63D-04 DE=-3.34D-05 OVMax= 8.64D-04

 Cycle   8  Pass 1  IDiag  1:
 RMSU=  1.86D-06    CP:  8.40D-01  1.65D+00  9.29D-01  7.69D-01  1.38D+00
                    CP:  1.27D+00  1.09D+00
 CoulSu:  requested number of processors reduced to:  11 ShMem   1 Linda.
 CalDSu:  requested number of processors reduced to:  19 ShMem   1 Linda.
 E= -1178.35654560927     Delta-E=       -0.000005527981 Rises=F Damp=F
 DIIS: error= 1.93D-05 at cycle   8 NSaved=   8.
 NSaved= 8 IEnMin= 8 EnMin= -1178.35654560927     IErMin= 8 ErrMin= 1.93D-05
 ErrMax= 1.93D-05  0.00D+00 EMaxC= 1.00D-01 BMatC= 1.30D-06 BMatP= 6.46D-06
 IDIUse=1 WtCom= 1.00D+00 WtEn= 0.00D+00
 Coeff-Com:  0.126D-02-0.253D-02-0.547D-02-0.130D-01-0.193D-01 0.305D-01
 Coeff-Com:  0.330D+00 0.678D+00
 Coeff:      0.126D-02-0.253D-02-0.547D-02-0.130D-01-0.193D-01 0.305D-01
 Coeff:      0.330D+00 0.678D+00
 Gap=     0.276 Goal=   None    Shift=    0.000
 RMSDP=1.05D-06 MaxDP=1.31D-04 DE=-5.53D-06 OVMax= 3.04D-04

 Cycle   9  Pass 1  IDiag  1:
 RMSU=  9.67D-07    CP:  8.40D-01  1.65D+00  9.28D-01  7.70D-01  1.39D+00
                    CP:  1.28D+00  1.11D+00  1.05D+00
 CoulSu:  requested number of processors reduced to:  11 ShMem   1 Linda.
 CalDSu:  requested number of processors reduced to:  19 ShMem   1 Linda.
 E= -1178.35654678695     Delta-E=       -0.000001177681 Rises=F Damp=F
 DIIS: error= 4.22D-06 at cycle   9 NSaved=   9.
 NSaved= 9 IEnMin= 9 EnMin= -1178.35654678695     IErMin= 9 ErrMin= 4.22D-06
 ErrMax= 4.22D-06  0.00D+00 EMaxC= 1.00D-01 BMatC= 1.14D-07 BMatP= 1.30D-06
 IDIUse=1 WtCom= 1.00D+00 WtEn= 0.00D+00
 Coeff-Com:  0.949D-04-0.174D-03 0.351D-03-0.796D-03-0.894D-02-0.231D-01
 Coeff-Com:  0.236D-01 0.215D+00 0.794D+00
 Coeff:      0.949D-04-0.174D-03 0.351D-03-0.796D-03-0.894D-02-0.231D-01
 Coeff:      0.236D-01 0.215D+00 0.794D+00
 Gap=     0.276 Goal=   None    Shift=    0.000
 RMSDP=4.88D-07 MaxDP=5.65D-05 DE=-1.18D-06 OVMax= 1.53D-04

 Cycle  10  Pass 1  IDiag  1:
 RMSU=  2.86D-07    CP:  8.40D-01  1.65D+00  9.28D-01  7.70D-01  1.39D+00
                    CP:  1.27D+00  1.11D+00  1.18D+00  1.29D+00
 CoulSu:  requested number of processors reduced to:  11 ShMem   1 Linda.
 CalDSu:  requested number of processors reduced to:  19 ShMem   1 Linda.
 E= -1178.35654688670     Delta-E=       -0.000000099752 Rises=F Damp=F
 DIIS: error= 3.65D-06 at cycle  10 NSaved=  10.
 NSaved=10 IEnMin=10 EnMin= -1178.35654688670     IErMin=10 ErrMin= 3.65D-06
 ErrMax= 3.65D-06  0.00D+00 EMaxC= 1.00D-01 BMatC= 4.34D-08 BMatP= 1.14D-07
 IDIUse=1 WtCom= 1.00D+00 WtEn= 0.00D+00
 Coeff-Com: -0.153D-03 0.312D-03 0.113D-02 0.171D-02-0.258D-02-0.202D-01
 Coeff-Com: -0.521D-01-0.100D-01 0.459D+00 0.622D+00
 Coeff:     -0.153D-03 0.312D-03 0.113D-02 0.171D-02-0.258D-02-0.202D-01
 Coeff:     -0.521D-01-0.100D-01 0.459D+00 0.622D+00
 Gap=     0.276 Goal=   None    Shift=    0.000
 RMSDP=1.96D-07 MaxDP=2.70D-05 DE=-9.98D-08 OVMax= 4.80D-05

 Cycle  11  Pass 1  IDiag  1:
 RMSU=  1.02D-07    CP:  8.40D-01  1.65D+00  9.28D-01  7.70D-01  1.38D+00
                    CP:  1.28D+00  1.11D+00  1.23D+00  1.42D+00  9.92D-01
 CoulSu:  requested number of processors reduced to:  11 ShMem   1 Linda.
 CalDSu:  requested number of processors reduced to:  19 ShMem   1 Linda.
 E= -1178.35654692424     Delta-E=       -0.000000037531 Rises=F Damp=F
 DIIS: error= 6.58D-07 at cycle  11 NSaved=  11.
 NSaved=11 IEnMin=11 EnMin= -1178.35654692424     IErMin=11 ErrMin= 6.58D-07
 ErrMax= 6.58D-07  0.00D+00 EMaxC= 1.00D-01 BMatC= 1.70D-09 BMatP= 4.34D-08
 IDIUse=1 WtCom= 1.00D+00 WtEn= 0.00D+00
 Coeff-Com: -0.499D-04 0.100D-03 0.294D-03 0.536D-03-0.318D-04-0.351D-02
 Coeff-Com: -0.180D-01-0.243D-01 0.603D-01 0.206D+00 0.778D+00
 Coeff:     -0.499D-04 0.100D-03 0.294D-03 0.536D-03-0.318D-04-0.351D-02
 Coeff:     -0.180D-01-0.243D-01 0.603D-01 0.206D+00 0.778D+00
 Gap=     0.276 Goal=   None    Shift=    0.000
 RMSDP=4.86D-08 MaxDP=9.88D-06 DE=-3.75D-08 OVMax= 1.54D-05

 Cycle  12  Pass 1  IDiag  1:
 RMSU=  3.82D-08    CP:  8.40D-01  1.65D+00  9.28D-01  7.70D-01  1.38D+00
                    CP:  1.28D+00  1.11D+00  1.23D+00  1.44D+00  1.03D+00
                    CP:  1.08D+00
 CoulSu:  requested number of processors reduced to:  11 ShMem   1 Linda.
 CalDSu:  requested number of processors reduced to:  19 ShMem   1 Linda.
 E= -1178.35654692550     Delta-E=       -0.000000001264 Rises=F Damp=F
 DIIS: error= 2.69D-07 at cycle  12 NSaved=  12.
 NSaved=12 IEnMin=12 EnMin= -1178.35654692550     IErMin=12 ErrMin= 2.69D-07
 ErrMax= 2.69D-07  0.00D+00 EMaxC= 1.00D-01 BMatC= 4.28D-10 BMatP= 1.70D-09
 IDIUse=1 WtCom= 1.00D+00 WtEn= 0.00D+00
 Coeff-Com: -0.126D-04 0.254D-04 0.704D-04 0.149D-03 0.248D-03-0.138D-03
 Coeff-Com: -0.505D-02-0.115D-01-0.474D-02 0.593D-01 0.407D+00 0.554D+00
 Coeff:     -0.126D-04 0.254D-04 0.704D-04 0.149D-03 0.248D-03-0.138D-03
 Coeff:     -0.505D-02-0.115D-01-0.474D-02 0.593D-01 0.407D+00 0.554D+00
 Gap=     0.276 Goal=   None    Shift=    0.000
 RMSDP=1.21D-08 MaxDP=1.57D-06 DE=-1.26D-09 OVMax= 4.71D-06

 Cycle  13  Pass 1  IDiag  1:
 RMSU=  1.13D-08    CP:  8.40D-01  1.65D+00  9.28D-01  7.70D-01  1.38D+00
                    CP:  1.28D+00  1.11D+00  1.23D+00  1.44D+00  1.04D+00
                    CP:  1.11D+00  1.01D+00
 CoulSu:  requested number of processors reduced to:  11 ShMem   1 Linda.
 CalDSu:  requested number of processors reduced to:  19 ShMem   1 Linda.
 E= -1178.35654692574     Delta-E=       -0.000000000238 Rises=F Damp=F
 DIIS: error= 9.30D-08 at cycle  13 NSaved=  13.
 NSaved=13 IEnMin=13 EnMin= -1178.35654692574     IErMin=13 ErrMin= 9.30D-08
 ErrMax= 9.30D-08  0.00D+00 EMaxC= 1.00D-01 BMatC= 3.03D-11 BMatP= 4.28D-10
 IDIUse=1 WtCom= 1.00D+00 WtEn= 0.00D+00
 Coeff-Com:  0.465D-05-0.911D-05-0.158D-04-0.330D-04 0.425D-04 0.349D-03
 Coeff-Com:  0.129D-02 0.601D-03-0.116D-01-0.181D-01-0.215D-01 0.131D+00
 Coeff-Com:  0.918D+00
 Coeff:      0.465D-05-0.911D-05-0.158D-04-0.330D-04 0.425D-04 0.349D-03
 Coeff:      0.129D-02 0.601D-03-0.116D-01-0.181D-01-0.215D-01 0.131D+00
 Coeff:      0.918D+00
 Gap=     0.276 Goal=   None    Shift=    0.000
 RMSDP=6.74D-09 MaxDP=1.10D-06 DE=-2.38D-10 OVMax= 1.08D-06

 Cycle  14  Pass 1  IDiag  1:
 RMSU=  4.14D-09    CP:  8.40D-01  1.65D+00  9.28D-01  7.70D-01  1.38D+00
                    CP:  1.28D+00  1.11D+00  1.23D+00  1.44D+00  1.04D+00
                    CP:  1.14D+00  1.09D+00  1.14D+00
 CoulSu:  requested number of processors reduced to:  11 ShMem   1 Linda.
 CalDSu:  requested number of processors reduced to:  19 ShMem   1 Linda.
 E= -1178.35654692607     Delta-E=       -0.000000000330 Rises=F Damp=F
 DIIS: error= 2.18D-08 at cycle  14 NSaved=  14.
 NSaved=14 IEnMin=14 EnMin= -1178.35654692607     IErMin=14 ErrMin= 2.18D-08
 ErrMax= 2.18D-08  0.00D+00 EMaxC= 1.00D-01 BMatC= 2.41D-12 BMatP= 3.03D-11
 IDIUse=1 WtCom= 1.00D+00 WtEn= 0.00D+00
 Coeff-Com:  0.234D-05-0.467D-05-0.802D-05-0.175D-04 0.736D-05 0.143D-03
 Coeff-Com:  0.724D-03 0.676D-03-0.420D-02-0.944D-02-0.281D-01 0.151D-01
 Coeff-Com:  0.362D+00 0.663D+00
 Coeff:      0.234D-05-0.467D-05-0.802D-05-0.175D-04 0.736D-05 0.143D-03
 Coeff:      0.724D-03 0.676D-03-0.420D-02-0.944D-02-0.281D-01 0.151D-01
 Coeff:      0.362D+00 0.663D+00
 Gap=     0.276 Goal=   None    Shift=    0.000
 RMSDP=1.56D-09 MaxDP=2.83D-07 DE=-3.30D-10 OVMax= 3.41D-07

 SCF Done:  E(RM062X) =  -1178.35654693     A.U. after   14 cycles
            NFock= 14  Conv=0.16D-08     -V/T= 2.0039
 KE= 1.173791596313D+03 PE=-6.161744813507D+03 EE= 2.109037333851D+03
 Leave Link  502 at Sat Apr 17 12:55:27 2021, MaxMem=   104857600 cpu:          168932.9 elap:           12562.5
 (Enter /s/ls4/users/knvvv/bin/g16sse/l601.exe)
 Copying SCF densities to generalized density rwf, IOpCl= 0 IROHF=0.

 **********************************************************************

            Population analysis using the SCF density.

 **********************************************************************

 Orbital symmetries:
       Occupied  (A) (A) (A) (A) (A) (A) (A) (A) (A) (A) (A) (A)
                 (A) (A) (A) (A) (A) (A) (A) (A) (A) (A) (A) (A)
                 (A) (A) (A) (A) (A) (A) (A) (A) (A) (A) (A) (A)
                 (A) (A) (A) (A) (A) (A) (A) (A) (A) (A) (A) (A)
                 (A) (A) (A) (A) (A) (A) (A) (A) (A) (A) (A) (A)
                 (A) (A) (A) (A) (A) (A) (A) (A) (A) (A) (A) (A)
                 (A) (A) (A) (A) (A) (A)
       Virtual   (A) (A) (A) (A) (A) (A) (A) (A) (A) (A) (A) (A)
                 (A) (A) (A) (A) (A) (A) (A) (A) (A) (A) (A) (A)
                 (A) (A) (A) (A) (A) (A) (A) (A) (A) (A) (A) (A)
                 (A) (A) (A) (A) (A) (A) (A) (A) (A) (A) (A) (A)
                 (A) (A) (A) (A) (A) (A) (A) (A) (A) (A) (A) (A)
                 (A) (A) (A) (A) (A) (A) (A) (A) (A) (A) (A) (A)
                 (A) (A) (A) (A) (A) (A) (A) (A) (A) (A) (A) (A)
                 (A) (A) (A) (A) (A) (A) (A) (A) (A) (A) (A) (A)
                 (A) (A) (A) (A) (A) (A) (A) (A) (A) (A) (A) (A)
                 (A) (A) (A) (A) (A) (A) (A) (A) (A) (A) (A) (A)
                 (A) (A) (A) (A) (A) (A) (A) (A) (A) (A) (A) (A)
                 (A) (A) (A) (A) (A) (A) (A) (A) (A) (A) (A) (A)
                 (A) (A) (A) (A) (A) (A) (A) (A) (A) (A) (A) (A)
                 (A) (A) (A) (A) (A) (A) (A) (A) (A) (A) (A) (A)
                 (A) (A) (A) (A) (A) (A) (A) (A) (A) (A) (A) (A)
                 (A) (A) (A) (A) (A) (A) (A) (A) (A) (A) (A) (A)
                 (A) (A) (A) (A) (A) (A) (A) (A) (A) (A) (A) (A)
                 (A) (A) (A) (A) (A) (A) (A) (A) (A) (A) (A) (A)
                 (A) (A) (A) (A) (A) (A) (A) (A) (A) (A) (A) (A)
                 (A) (A) (A) (A) (A) (A) (A) (A) (A) (A) (A) (A)
                 (A) (A) (A) (A) (A) (A) (A) (A) (A) (A) (A) (A)
                 (A) (A) (A) (A) (A) (A) (A) (A) (A) (A) (A) (A)
                 (A) (A) (A) (A) (A) (A) (A) (A) (A) (A) (A) (A)
                 (A) (A) (A) (A) (A) (A) (A) (A) (A) (A) (A) (A)
                 (A) (A) (A) (A) (A) (A) (A) (A) (A) (A) (A) (A)
                 (A) (A) (A) (A) (A) (A) (A) (A) (A) (A) (A) (A)
                 (A) (A) (A) (A) (A) (A) (A) (A) (A) (A) (A) (A)
                 (A) (A) (A) (A) (A) (A) (A) (A) (A) (A) (A) (A)
                 (A) (A) (A) (A) (A) (A) (A) (A) (A) (A) (A) (A)
                 (A) (A) (A) (A) (A) (A) (A) (A) (A) (A) (A) (A)
                 (A) (A) (A) (A) (A) (A) (A) (A) (A) (A) (A) (A)
                 (A) (A) (A) (A) (A) (A) (A) (A) (A) (A) (A) (A)
                 (A) (A) (A) (A) (A) (A) (A) (A) (A) (A) (A) (A)
                 (A) (A) (A) (A) (A) (A) (A) (A) (A) (A) (A) (A)
                 (A) (A) (A) (A) (A) (A) (A) (A) (A) (A) (A) (A)
                 (A) (A) (A) (A) (A) (A) (A) (A) (A) (A) (A) (A)
                 (A) (A) (A) (A) (A) (A) (A) (A) (A) (A) (A) (A)
                 (A) (A) (A) (A) (A) (A) (A) (A) (A) (A) (A) (A)
                 (A) (A) (A) (A) (A) (A) (A) (A) (A) (A) (A) (A)
                 (A) (A) (A) (A) (A) (A) (A) (A) (A) (A) (A) (A)
                 (A) (A) (A) (A) (A) (A) (A) (A) (A) (A) (A) (A)
                 (A) (A) (A) (A) (A) (A) (A) (A) (A) (A) (A) (A)
                 (A) (A) (A) (A) (A) (A) (A) (A) (A) (A) (A) (A)
                 (A) (A) (A) (A) (A) (A) (A) (A) (A) (A) (A) (A)
                 (A) (A) (A) (A) (A) (A) (A) (A) (A) (A) (A) (A)
                 (A) (A) (A) (A) (A) (A) (A) (A) (A) (A) (A) (A)
                 (A) (A) (A) (A) (A) (A) (A) (A) (A) (A) (A) (A)
                 (A) (A) (A) (A) (A) (A) (A) (A) (A) (A) (A) (A)
                 (A) (A) (A) (A) (A) (A) (A) (A) (A) (A) (A) (A)
                 (A) (A) (A) (A) (A) (A) (A) (A) (A) (A) (A) (A)
                 (A) (A) (A) (A) (A) (A) (A) (A) (A) (A) (A) (A)
                 (A) (A) (A) (A) (A) (A) (A) (A) (A) (A) (A) (A)
                 (A) (A) (A) (A) (A) (A) (A) (A) (A) (A) (A) (A)
                 (A) (A) (A) (A) (A) (A) (A) (A) (A) (A) (A) (A)
                 (A) (A) (A) (A) (A) (A) (A) (A) (A) (A) (A) (A)
                 (A) (A) (A) (A) (A) (A) (A) (A) (A) (A) (A) (A)
                 (A) (A) (A) (A) (A) (A) (A) (A) (A) (A) (A) (A)
                 (A) (A) (A) (A) (A) (A) (A) (A) (A) (A) (A) (A)
                 (A) (A) (A) (A) (A) (A) (A) (A) (A) (A) (A) (A)
                 (A) (A) (A) (A) (A) (A) (A) (A) (A) (A) (A) (A)
                 (A) (A) (A) (A) (A) (A) (A) (A) (A) (A) (A) (A)
                 (A) (A) (A) (A) (A) (A) (A) (A) (A) (A) (A) (A)
                 (A) (A) (A) (A) (A) (A) (A) (A) (A) (A) (A) (A)
                 (A) (A) (A) (A) (A) (A) (A) (A) (A) (A) (A) (A)
                 (A) (A) (A) (A) (A) (A) (A) (A) (A) (A) (A) (A)
                 (A) (A) (A) (A) (A) (A) (A) (A) (A) (A) (A) (A)
                 (A) (A) (A) (A) (A) (A) (A) (A) (A) (A) (A) (A)
                 (A) (A) (A) (A) (A) (A) (A) (A) (A) (A) (A) (A)
                 (A) (A) (A) (A) (A) (A) (A) (A) (A) (A) (A) (A)
                 (A) (A) (A) (A) (A) (A) (A) (A) (A) (A) (A) (A)
                 (A) (A) (A) (A) (A) (A) (A) (A) (A) (A) (A) (A)
                 (A) (A) (A) (A) (A) (A) (A) (A) (A) (A) (A) (A)
                 (A) (A) (A) (A) (A) (A) (A) (A) (A) (A) (A) (A)
                 (A) (A) (A) (A) (A) (A) (A) (A) (A) (A) (A) (A)
                 (A) (A) (A) (A) (A) (A) (A) (A) (A) (A) (A) (A)
                 (A) (A) (A) (A) (A) (A) (A) (A) (A) (A) (A) (A)
                 (A) (A) (A) (A) (A) (A) (A) (A) (A) (A) (A) (A)
                 (A) (A) (A) (A) (A) (A) (A) (A) (A) (A) (A) (A)
                 (A) (A) (A) (A) (A) (A) (A) (A) (A) (A) (A) (A)
                 (A) (A) (A) (A) (A) (A) (A) (A) (A) (A) (A) (A)
                 (A) (A) (A) (A) (A) (A) (A) (A) (A) (A) (A) (A)
                 (A) (A) (A) (A) (A) (A) (A) (A) (A) (A) (A) (A)
                 (A) (A) (A) (A) (A) (A) (A) (A) (A) (A) (A) (A)
                 (A) (A) (A) (A) (A) (A) (A) (A) (A) (A) (A) (A)
                 (A) (A) (A) (A) (A) (A) (A) (A) (A) (A) (A) (A)
                 (A) (A) (A) (A) (A) (A) (A) (A) (A) (A) (A) (A)
                 (A) (A) (A) (A) (A) (A) (A) (A) (A) (A) (A) (A)
                 (A) (A) (A) (A) (A) (A) (A) (A) (A) (A) (A) (A)
                 (A) (A) (A) (A) (A) (A) (A) (A) (A) (A) (A) (A)
                 (A) (A) (A) (A) (A) (A) (A) (A) (A) (A) (A) (A)
                 (A) (A) (A) (A) (A) (A) (A) (A) (A) (A) (A) (A)
                 (A) (A) (A) (A) (A) (A) (A) (A) (A) (A) (A) (A)
                 (A) (A) (A) (A) (A) (A) (A) (A) (A) (A) (A) (A)
                 (A) (A) (A) (A) (A) (A) (A) (A) (A) (A) (A) (A)
                 (A) (A) (A) (A) (A) (A) (A) (A) (A) (A) (A) (A)
                 (A) (A) (A) (A) (A) (A) (A) (A) (A) (A) (A) (A)
                 (A) (A) (A) (A) (A) (A) (A) (A) (A) (A) (A) (A)
                 (A) (A) (A) (A) (A) (A) (A) (A) (A) (A) (A) (A)
                 (A) (A) (A) (A) (A) (A) (A) (A) (A) (A) (A) (A)
                 (A) (A) (A) (A) (A) (A) (A) (A) (A) (A) (A) (A)
                 (A) (A) (A) (A) (A) (A) (A) (A) (A) (A) (A) (A)
                 (A) (A) (A) (A) (A) (A) (A) (A) (A) (A) (A) (A)
                 (A) (A) (A) (A) (A) (A) (A) (A) (A) (A) (A) (A)
                 (A) (A) (A) (A) (A) (A) (A) (A) (A) (A) (A) (A)
                 (A) (A) (A) (A) (A) (A) (A) (A) (A) (A) (A) (A)
                 (A) (A) (A) (A) (A) (A) (A) (A) (A) (A) (A) (A)
                 (A) (A) (A) (A) (A) (A) (A) (A) (A) (A) (A) (A)
                 (A) (A) (A) (A) (A) (A) (A) (A) (A) (A) (A) (A)
                 (A) (A) (A) (A) (A) (A) (A) (A) (A) (A) (A) (A)
                 (A) (A) (A) (A) (A) (A) (A) (A) (A) (A) (A) (A)
                 (A) (A) (A) (A) (A) (A) (A) (A) (A) (A) (A) (A)
                 (A) (A) (A) (A) (A) (A) (A) (A) (A) (A) (A) (A)
                 (A) (A) (A) (A) (A) (A) (A) (A) (A) (A) (A) (A)
                 (A) (A) (A) (A) (A) (A) (A) (A) (A) (A) (A) (A)
                 (A) (A) (A) (A) (A) (A) (A) (A) (A) (A) (A) (A)
                 (A) (A) (A) (A) (A) (A) (A) (A) (A) (A) (A) (A)
                 (A) (A) (A) (A) (A) (A) (A) (A) (A) (A) (A) (A)
                 (A) (A) (A) (A) (A) (A) (A) (A) (A) (A) (A) (A)
                 (A) (A) (A) (A) (A) (A) (A) (A) (A) (A) (A) (A)
                 (A) (A) (A) (A) (A) (A) (A) (A) (A) (A) (A) (A)
                 (A) (A) (A) (A) (A) (A) (A) (A) (A) (A) (A) (A)
                 (A) (A) (A) (A) (A) (A) (A) (A) (A) (A) (A) (A)
                 (A) (A) (A) (A) (A) (A) (A) (A) (A) (A) (A) (A)
                 (A) (A) (A) (A) (A) (A) (A) (A) (A) (A) (A) (A)
                 (A) (A) (A) (A) (A) (A) (A) (A) (A) (A) (A) (A)
                 (A) (A) (A) (A) (A) (A) (A) (A) (A) (A) (A) (A)
                 (A) (A) (A) (A) (A) (A) (A) (A) (A) (A) (A) (A)
                 (A) (A) (A) (A) (A) (A) (A) (A) (A) (A) (A) (A)
                 (A) (A) (A) (A) (A) (A) (A) (A) (A) (A) (A) (A)
                 (A) (A) (A) (A) (A) (A) (A) (A) (A) (A) (A) (A)
 The electronic state is 1-A.
 Alpha  occ. eigenvalues --  -19.65414 -19.64880 -19.64287 -19.62222 -19.59413
 Alpha  occ. eigenvalues --  -19.58574 -14.86953 -14.86693 -14.86642 -14.85728
 Alpha  occ. eigenvalues --  -14.83067 -14.82260 -14.81449 -14.80357 -14.79783
 Alpha  occ. eigenvalues --  -10.73511 -10.73478 -10.73041 -10.71397 -10.68324
 Alpha  occ. eigenvalues --  -10.67680  -1.27108  -1.26478  -1.21858  -1.20832
 Alpha  occ. eigenvalues --   -1.20301  -1.17286  -1.16017  -1.15068  -1.11399
 Alpha  occ. eigenvalues --   -1.07432  -1.06615  -1.03028  -0.98956  -0.98290
 Alpha  occ. eigenvalues --   -0.93288  -0.80493  -0.79074  -0.76582  -0.75955
 Alpha  occ. eigenvalues --   -0.75234  -0.71828  -0.69839  -0.68611  -0.66057
 Alpha  occ. eigenvalues --   -0.65401  -0.63835  -0.62920  -0.62321  -0.61066
 Alpha  occ. eigenvalues --   -0.60128  -0.59597  -0.58557  -0.56784  -0.56681
 Alpha  occ. eigenvalues --   -0.55890  -0.54558  -0.53800  -0.52362  -0.51698
 Alpha  occ. eigenvalues --   -0.51467  -0.50076  -0.47832  -0.46999  -0.46934
 Alpha  occ. eigenvalues --   -0.43327  -0.42492  -0.41599  -0.39701  -0.39428
 Alpha  occ. eigenvalues --   -0.38635  -0.37705  -0.36630  -0.35212  -0.34719
 Alpha  occ. eigenvalues --   -0.34373  -0.33599  -0.29458
 Alpha virt. eigenvalues --   -0.01903  -0.01378   0.00224   0.00549   0.00804
 Alpha virt. eigenvalues --    0.01077   0.01570   0.01780   0.02574   0.03228
 Alpha virt. eigenvalues --    0.03831   0.04192   0.04484   0.04978   0.05088
 Alpha virt. eigenvalues --    0.05572   0.05916   0.06067   0.06236   0.06641
 Alpha virt. eigenvalues --    0.06862   0.07273   0.07937   0.08092   0.08157
 Alpha virt. eigenvalues --    0.08856   0.09000   0.09369   0.09851   0.10099
 Alpha virt. eigenvalues --    0.10590   0.10980   0.11446   0.11518   0.11873
 Alpha virt. eigenvalues --    0.12137   0.12408   0.12697   0.13420   0.13622
 Alpha virt. eigenvalues --    0.13833   0.14330   0.14727   0.15230   0.15472
 Alpha virt. eigenvalues --    0.16046   0.16429   0.16577   0.16759   0.16967
 Alpha virt. eigenvalues --    0.17533   0.17797   0.18156   0.18423   0.18900
 Alpha virt. eigenvalues --    0.19202   0.19392   0.19861   0.20169   0.20439
 Alpha virt. eigenvalues --    0.20611   0.20769   0.20901   0.21433   0.21475
 Alpha virt. eigenvalues --    0.21757   0.22060   0.22517   0.22954   0.23181
 Alpha virt. eigenvalues --    0.23269   0.23526   0.23637   0.24166   0.24484
 Alpha virt. eigenvalues --    0.24923   0.25297   0.25312   0.25712   0.25753
 Alpha virt. eigenvalues --    0.26195   0.26479   0.26492   0.26849   0.27230
 Alpha virt. eigenvalues --    0.27592   0.27930   0.28089   0.28310   0.28620
 Alpha virt. eigenvalues --    0.28856   0.29109   0.29473   0.29707   0.29954
 Alpha virt. eigenvalues --    0.30242   0.30484   0.30684   0.30860   0.31727
 Alpha virt. eigenvalues --    0.31783   0.31996   0.32190   0.32844   0.32928
 Alpha virt. eigenvalues --    0.33178   0.33324   0.33582   0.34219   0.34328
 Alpha virt. eigenvalues --    0.34432   0.34646   0.35082   0.35141   0.35604
 Alpha virt. eigenvalues --    0.35828   0.35973   0.36605   0.36843   0.37102
 Alpha virt. eigenvalues --    0.37694   0.37774   0.37936   0.38096   0.38485
 Alpha virt. eigenvalues --    0.38733   0.39125   0.39413   0.39852   0.40064
 Alpha virt. eigenvalues --    0.40219   0.40502   0.41018   0.41105   0.41416
 Alpha virt. eigenvalues --    0.41669   0.41926   0.42407   0.43189   0.43342
 Alpha virt. eigenvalues --    0.43645   0.43817   0.44076   0.44551   0.44934
 Alpha virt. eigenvalues --    0.45093   0.45237   0.45601   0.46250   0.46341
 Alpha virt. eigenvalues --    0.46545   0.46645   0.47129   0.47498   0.47531
 Alpha virt. eigenvalues --    0.47736   0.48003   0.48326   0.48593   0.48963
 Alpha virt. eigenvalues --    0.49313   0.49534   0.50031   0.50345   0.50578
 Alpha virt. eigenvalues --    0.50839   0.51262   0.51478   0.51977   0.52065
 Alpha virt. eigenvalues --    0.52512   0.52729   0.53229   0.53518   0.54029
 Alpha virt. eigenvalues --    0.54144   0.54525   0.55053   0.55167   0.55248
 Alpha virt. eigenvalues --    0.55775   0.56075   0.56327   0.56541   0.56813
 Alpha virt. eigenvalues --    0.56953   0.57326   0.57607   0.57982   0.58209
 Alpha virt. eigenvalues --    0.58702   0.59087   0.59209   0.59563   0.59757
 Alpha virt. eigenvalues --    0.60164   0.60333   0.60596   0.60872   0.61296
 Alpha virt. eigenvalues --    0.61528   0.61759   0.62162   0.62222   0.62664
 Alpha virt. eigenvalues --    0.62938   0.63021   0.63152   0.63879   0.64070
 Alpha virt. eigenvalues --    0.64288   0.64779   0.65168   0.65325   0.65485
 Alpha virt. eigenvalues --    0.66027   0.66247   0.66322   0.66536   0.66967
 Alpha virt. eigenvalues --    0.67023   0.67676   0.68004   0.68367   0.68620
 Alpha virt. eigenvalues --    0.69019   0.69271   0.69495   0.70250   0.70535
 Alpha virt. eigenvalues --    0.70694   0.71162   0.71264   0.71386   0.72071
 Alpha virt. eigenvalues --    0.72435   0.72869   0.73270   0.73562   0.73959
 Alpha virt. eigenvalues --    0.74487   0.75199   0.75357   0.75636   0.76099
 Alpha virt. eigenvalues --    0.76814   0.76949   0.77160   0.77319   0.78045
 Alpha virt. eigenvalues --    0.78682   0.79007   0.79283   0.79879   0.79999
 Alpha virt. eigenvalues --    0.80937   0.81413   0.81601   0.81846   0.82066
 Alpha virt. eigenvalues --    0.82432   0.82893   0.83953   0.84420   0.84560
 Alpha virt. eigenvalues --    0.85021   0.85294   0.85615   0.86409   0.86765
 Alpha virt. eigenvalues --    0.87071   0.87312   0.87537   0.88264   0.88782
 Alpha virt. eigenvalues --    0.89072   0.89702   0.90277   0.90619   0.91121
 Alpha virt. eigenvalues --    0.91334   0.91413   0.92655   0.93133   0.93932
 Alpha virt. eigenvalues --    0.94198   0.94497   0.95181   0.95511   0.95953
 Alpha virt. eigenvalues --    0.96253   0.96774   0.96839   0.97555   0.97859
 Alpha virt. eigenvalues --    0.98416   0.98925   0.99295   0.99738   1.00336
 Alpha virt. eigenvalues --    1.00730   1.01578   1.01923   1.02067   1.02372
 Alpha virt. eigenvalues --    1.02582   1.02881   1.03844   1.04253   1.04500
 Alpha virt. eigenvalues --    1.04834   1.05721   1.06055   1.06243   1.06984
 Alpha virt. eigenvalues --    1.07533   1.07875   1.08489   1.09194   1.10084
 Alpha virt. eigenvalues --    1.10492   1.10774   1.11305   1.11922   1.12168
 Alpha virt. eigenvalues --    1.12990   1.13327   1.13815   1.14112   1.14780
 Alpha virt. eigenvalues --    1.15292   1.15731   1.16549   1.17201   1.17596
 Alpha virt. eigenvalues --    1.18020   1.18334   1.19241   1.19479   1.19832
 Alpha virt. eigenvalues --    1.20181   1.21045   1.21289   1.21793   1.22180
 Alpha virt. eigenvalues --    1.22458   1.23058   1.23879   1.24772   1.24937
 Alpha virt. eigenvalues --    1.25661   1.26296   1.27065   1.27372   1.27511
 Alpha virt. eigenvalues --    1.27975   1.28790   1.28968   1.29217   1.29348
 Alpha virt. eigenvalues --    1.30450   1.31192   1.31470   1.32384   1.32731
 Alpha virt. eigenvalues --    1.33086   1.33471   1.34399   1.34941   1.35107
 Alpha virt. eigenvalues --    1.36025   1.36551   1.37081   1.37878   1.38317
 Alpha virt. eigenvalues --    1.38486   1.39669   1.39801   1.40236   1.40545
 Alpha virt. eigenvalues --    1.40903   1.42279   1.42539   1.42971   1.43559
 Alpha virt. eigenvalues --    1.44155   1.44442   1.44974   1.45227   1.45982
 Alpha virt. eigenvalues --    1.46716   1.47671   1.48794   1.49543   1.49614
 Alpha virt. eigenvalues --    1.50505   1.51002   1.51368   1.51872   1.52217
 Alpha virt. eigenvalues --    1.53218   1.53941   1.54248   1.55214   1.56118
 Alpha virt. eigenvalues --    1.56488   1.56967   1.57709   1.58132   1.58775
 Alpha virt. eigenvalues --    1.58807   1.60026   1.60386   1.61129   1.61552
 Alpha virt. eigenvalues --    1.61728   1.62056   1.62783   1.63478   1.63781
 Alpha virt. eigenvalues --    1.64775   1.64914   1.65122   1.65619   1.66375
 Alpha virt. eigenvalues --    1.66589   1.67624   1.67931   1.68565   1.69339
 Alpha virt. eigenvalues --    1.69644   1.69995   1.70621   1.71232   1.71690
 Alpha virt. eigenvalues --    1.72747   1.72980   1.73566   1.74448   1.74736
 Alpha virt. eigenvalues --    1.75036   1.75808   1.76001   1.76329   1.76541
 Alpha virt. eigenvalues --    1.77061   1.77979   1.78932   1.79253   1.79434
 Alpha virt. eigenvalues --    1.80218   1.80385   1.81607   1.82313   1.82413
 Alpha virt. eigenvalues --    1.83428   1.83769   1.84624   1.85767   1.86391
 Alpha virt. eigenvalues --    1.86512   1.86844   1.88207   1.88716   1.90347
 Alpha virt. eigenvalues --    1.90978   1.91858   1.92329   1.93209   1.94827
 Alpha virt. eigenvalues --    1.95329   1.96377   1.96490   1.97017   1.97866
 Alpha virt. eigenvalues --    1.99057   1.99500   2.00526   2.01080   2.01213
 Alpha virt. eigenvalues --    2.01725   2.02169   2.02986   2.03390   2.05046
 Alpha virt. eigenvalues --    2.05618   2.05968   2.06959   2.07393   2.07803
 Alpha virt. eigenvalues --    2.08375   2.09198   2.09963   2.10148   2.10889
 Alpha virt. eigenvalues --    2.11483   2.12669   2.12856   2.13371   2.14162
 Alpha virt. eigenvalues --    2.14756   2.15341   2.16000   2.16621   2.17409
 Alpha virt. eigenvalues --    2.18105   2.18642   2.19258   2.20147   2.21133
 Alpha virt. eigenvalues --    2.21444   2.22734   2.22919   2.23408   2.23864
 Alpha virt. eigenvalues --    2.24024   2.24757   2.25573   2.26310   2.27511
 Alpha virt. eigenvalues --    2.27910   2.28276   2.29239   2.30220   2.30974
 Alpha virt. eigenvalues --    2.31230   2.31922   2.32555   2.33047   2.33320
 Alpha virt. eigenvalues --    2.34196   2.34852   2.35332   2.35788   2.36617
 Alpha virt. eigenvalues --    2.37128   2.37998   2.38621   2.39449   2.40580
 Alpha virt. eigenvalues --    2.41183   2.42003   2.42777   2.43513   2.44521
 Alpha virt. eigenvalues --    2.45739   2.46391   2.46981   2.47706   2.48999
 Alpha virt. eigenvalues --    2.49746   2.50709   2.51341   2.51802   2.52112
 Alpha virt. eigenvalues --    2.52455   2.53322   2.54432   2.54761   2.54992
 Alpha virt. eigenvalues --    2.55916   2.56188   2.57063   2.57853   2.58255
 Alpha virt. eigenvalues --    2.58580   2.59035   2.59980   2.60405   2.60626
 Alpha virt. eigenvalues --    2.60900   2.61736   2.62251   2.62400   2.63055
 Alpha virt. eigenvalues --    2.63825   2.64273   2.65419   2.65967   2.66398
 Alpha virt. eigenvalues --    2.66854   2.67636   2.68969   2.69691   2.70014
 Alpha virt. eigenvalues --    2.70315   2.70822   2.71836   2.72411   2.73021
 Alpha virt. eigenvalues --    2.73408   2.73976   2.74899   2.75705   2.76303
 Alpha virt. eigenvalues --    2.77405   2.77692   2.79431   2.80057   2.80362
 Alpha virt. eigenvalues --    2.80596   2.80995   2.81564   2.81873   2.82131
 Alpha virt. eigenvalues --    2.83141   2.83333   2.84269   2.84761   2.86024
 Alpha virt. eigenvalues --    2.86765   2.87195   2.87780   2.88561   2.89011
 Alpha virt. eigenvalues --    2.89982   2.90343   2.91467   2.91768   2.93018
 Alpha virt. eigenvalues --    2.93469   2.94546   2.95000   2.95083   2.95616
 Alpha virt. eigenvalues --    2.96539   2.97663   2.98283   2.99569   3.00004
 Alpha virt. eigenvalues --    3.00762   3.01313   3.01751   3.02078   3.03583
 Alpha virt. eigenvalues --    3.03961   3.04321   3.05544   3.06442   3.07200
 Alpha virt. eigenvalues --    3.07630   3.08415   3.08720   3.09267   3.09570
 Alpha virt. eigenvalues --    3.10143   3.10551   3.11358   3.12334   3.12837
 Alpha virt. eigenvalues --    3.13401   3.14548   3.15478   3.15779   3.16892
 Alpha virt. eigenvalues --    3.17136   3.17893   3.18416   3.19095   3.19381
 Alpha virt. eigenvalues --    3.19723   3.20477   3.21036   3.21106   3.23035
 Alpha virt. eigenvalues --    3.23174   3.24148   3.24374   3.25076   3.25618
 Alpha virt. eigenvalues --    3.26095   3.27523   3.28892   3.28980   3.29434
 Alpha virt. eigenvalues --    3.30080   3.30338   3.31511   3.32130   3.32929
 Alpha virt. eigenvalues --    3.33747   3.34548   3.35863   3.36020   3.37370
 Alpha virt. eigenvalues --    3.38182   3.39576   3.39880   3.40152   3.41103
 Alpha virt. eigenvalues --    3.42190   3.43246   3.43613   3.44417   3.45353
 Alpha virt. eigenvalues --    3.45480   3.46422   3.47006   3.48465   3.49104
 Alpha virt. eigenvalues --    3.49822   3.50246   3.51343   3.51730   3.51943
 Alpha virt. eigenvalues --    3.54035   3.54980   3.55092   3.56183   3.56703
 Alpha virt. eigenvalues --    3.58078   3.58740   3.59133   3.60622   3.61140
 Alpha virt. eigenvalues --    3.62730   3.62910   3.64072   3.65280   3.67634
 Alpha virt. eigenvalues --    3.68297   3.68508   3.69594   3.70304   3.70960
 Alpha virt. eigenvalues --    3.71645   3.72644   3.73326   3.73399   3.74700
 Alpha virt. eigenvalues --    3.75699   3.76627   3.78131   3.78588   3.78879
 Alpha virt. eigenvalues --    3.80653   3.81713   3.82558   3.83645   3.84147
 Alpha virt. eigenvalues --    3.84409   3.85591   3.86199   3.87476   3.89573
 Alpha virt. eigenvalues --    3.90137   3.91549   3.92102   3.93382   3.94401
 Alpha virt. eigenvalues --    3.94897   3.95620   3.95742   3.96419   3.96873
 Alpha virt. eigenvalues --    3.97235   3.98241   3.98875   4.00248   4.00497
 Alpha virt. eigenvalues --    4.01881   4.02617   4.03588   4.04391   4.05066
 Alpha virt. eigenvalues --    4.06243   4.06967   4.08787   4.09067   4.10031
 Alpha virt. eigenvalues --    4.10435   4.13401   4.15424   4.15795   4.16684
 Alpha virt. eigenvalues --    4.17458   4.17948   4.18712   4.19022   4.19932
 Alpha virt. eigenvalues --    4.20340   4.20795   4.21713   4.22673   4.22812
 Alpha virt. eigenvalues --    4.23751   4.24601   4.25138   4.25766   4.26671
 Alpha virt. eigenvalues --    4.28298   4.28369   4.29205   4.29659   4.30412
 Alpha virt. eigenvalues --    4.31048   4.32502   4.33124   4.34137   4.34747
 Alpha virt. eigenvalues --    4.35214   4.36318   4.37839   4.38210   4.38625
 Alpha virt. eigenvalues --    4.38889   4.39406   4.40944   4.41397   4.41976
 Alpha virt. eigenvalues --    4.43223   4.44567   4.45302   4.45586   4.46619
 Alpha virt. eigenvalues --    4.49147   4.49467   4.50237   4.51121   4.51858
 Alpha virt. eigenvalues --    4.52574   4.53200   4.53966   4.55925   4.56720
 Alpha virt. eigenvalues --    4.58962   4.60490   4.62493   4.63185   4.63788
 Alpha virt. eigenvalues --    4.64180   4.66795   4.67939   4.69597   4.71081
 Alpha virt. eigenvalues --    4.72997   4.73531   4.74343   4.75627   4.76375
 Alpha virt. eigenvalues --    4.77063   4.77241   4.78541   4.79166   4.79978
 Alpha virt. eigenvalues --    4.81379   4.81842   4.83686   4.86713   4.89817
 Alpha virt. eigenvalues --    4.92031   4.94310   4.96174   4.98767   5.01447
 Alpha virt. eigenvalues --    5.02015   5.02493   5.05016   5.06900   5.07257
 Alpha virt. eigenvalues --    5.08798   5.09993   5.10778   5.11883   5.12864
 Alpha virt. eigenvalues --    5.13365   5.14207   5.14937   5.15939   5.18805
 Alpha virt. eigenvalues --    5.19396   5.20989   5.21828   5.23378   5.24343
 Alpha virt. eigenvalues --    5.25774   5.27628   5.28411   5.30078   5.30386
 Alpha virt. eigenvalues --    5.31633   5.32718   5.33643   5.34702   5.35150
 Alpha virt. eigenvalues --    5.35557   5.35779   5.36421   5.36810   5.38237
 Alpha virt. eigenvalues --    5.38833   5.40539   5.41084   5.41684   5.41798
 Alpha virt. eigenvalues --    5.43279   5.44586   5.44864   5.46599   5.47686
 Alpha virt. eigenvalues --    5.49492   5.50353   5.50724   5.51188   5.51441
 Alpha virt. eigenvalues --    5.52695   5.53829   5.54653   5.56022   5.57768
 Alpha virt. eigenvalues --    5.58229   5.60782   5.61641   5.61670   5.62608
 Alpha virt. eigenvalues --    5.63291   5.65211   5.66062   5.66247   5.68232
 Alpha virt. eigenvalues --    5.69087   5.69971   5.70633   5.71093   5.72000
 Alpha virt. eigenvalues --    5.72681   5.73153   5.73756   5.75577   5.76857
 Alpha virt. eigenvalues --    5.77370   5.77700   5.78535   5.79007   5.80040
 Alpha virt. eigenvalues --    5.80603   5.81245   5.82239   5.83631   5.85261
 Alpha virt. eigenvalues --    5.85688   5.88904   5.90024   5.90542   5.91674
 Alpha virt. eigenvalues --    5.91719   5.93010   5.93899   5.94607   5.95385
 Alpha virt. eigenvalues --    5.97332   5.98411   5.99251   6.00065   6.00823
 Alpha virt. eigenvalues --    6.01345   6.02151   6.02716   6.03672   6.04061
 Alpha virt. eigenvalues --    6.04414   6.05191   6.05461   6.05699   6.06028
 Alpha virt. eigenvalues --    6.07554   6.08135   6.08926   6.09957   6.11648
 Alpha virt. eigenvalues --    6.12763   6.13884   6.14228   6.15285   6.15950
 Alpha virt. eigenvalues --    6.16472   6.16898   6.17835   6.18095   6.18254
 Alpha virt. eigenvalues --    6.19222   6.19288   6.19760   6.20642   6.20820
 Alpha virt. eigenvalues --    6.24112   6.29953   6.31203   6.31683   6.32305
 Alpha virt. eigenvalues --    6.34644   6.35555   6.36328   6.36805   6.36903
 Alpha virt. eigenvalues --    6.37484   6.38152   6.39260   6.41354   6.41656
 Alpha virt. eigenvalues --    6.42830   6.44268   6.44482   6.46565   6.47200
 Alpha virt. eigenvalues --    6.47501   6.48043   6.50685   6.53347   6.54957
 Alpha virt. eigenvalues --    6.55377   6.56556   6.57530   6.59055   6.60705
 Alpha virt. eigenvalues --    6.61851   6.62467   6.63384   6.64044   6.64610
 Alpha virt. eigenvalues --    6.65668   6.67250   6.69026   6.72085   6.74192
 Alpha virt. eigenvalues --    6.74554   6.75378   6.76105   6.76791   6.79012
 Alpha virt. eigenvalues --    6.80821   6.82013   6.83063   6.85036   6.86607
 Alpha virt. eigenvalues --    6.88188   6.90691   6.91215   6.92209   6.92679
 Alpha virt. eigenvalues --    6.93812   6.95236   6.97085   7.00636   7.00841
 Alpha virt. eigenvalues --    7.01162   7.01952   7.02534   7.02880   7.03317
 Alpha virt. eigenvalues --    7.04156   7.04938   7.10808   7.11687   7.12302
 Alpha virt. eigenvalues --    7.12696   7.13523   7.14099   7.15881   7.16780
 Alpha virt. eigenvalues --    7.17222   7.18979   7.20408   7.21090   7.21742
 Alpha virt. eigenvalues --    7.22092   7.23997   7.24536   7.25347   7.26003
 Alpha virt. eigenvalues --    7.26290   7.29290   7.29740   7.30647   7.31080
 Alpha virt. eigenvalues --    7.33296   7.33343   7.33929   7.34281   7.34555
 Alpha virt. eigenvalues --    7.35848   7.36190   7.36332   7.37284   7.37780
 Alpha virt. eigenvalues --    7.38447   7.39251   7.40897   7.41539   7.42757
 Alpha virt. eigenvalues --    7.44551   7.45645   7.46553   7.47655   7.48393
 Alpha virt. eigenvalues --    7.51228   7.51669   7.52247   7.52858   7.54081
 Alpha virt. eigenvalues --    7.54774   7.55280   7.56849   7.56917   7.57493
 Alpha virt. eigenvalues --    7.60643   7.60925   7.61530   7.63023   7.64803
 Alpha virt. eigenvalues --    7.65592   7.66515   7.67472   7.68043   7.69584
 Alpha virt. eigenvalues --    7.70246   7.71891   7.72882   7.73433   7.73690
 Alpha virt. eigenvalues --    7.74181   7.74649   7.75028   7.75364   7.76445
 Alpha virt. eigenvalues --    7.76983   7.79691   7.80057   7.81434   7.82187
 Alpha virt. eigenvalues --    7.83452   7.83964   7.85411   7.87117   7.87363
 Alpha virt. eigenvalues --    7.87614   7.88446   7.88881   7.89625   7.90310
 Alpha virt. eigenvalues --    7.91889   7.93919   7.94702   7.95776   7.96086
 Alpha virt. eigenvalues --    7.97398   7.98495   7.98620   7.99392   7.99826
 Alpha virt. eigenvalues --    8.00556   8.01197   8.02148   8.02598   8.03647
 Alpha virt. eigenvalues --    8.04886   8.05492   8.06287   8.07023   8.07424
 Alpha virt. eigenvalues --    8.09276   8.10676   8.11785   8.13845   8.14831
 Alpha virt. eigenvalues --    8.16109   8.16404   8.17466   8.17858   8.19121
 Alpha virt. eigenvalues --    8.19771   8.22357   8.23620   8.24659   8.26850
 Alpha virt. eigenvalues --    8.27628   8.28798   8.28922   8.30071   8.31333
 Alpha virt. eigenvalues --    8.32705   8.32793   8.33622   8.35801   8.38978
 Alpha virt. eigenvalues --    8.39327   8.39775   8.40040   8.41648   8.42164
 Alpha virt. eigenvalues --    8.42646   8.43493   8.44306   8.45994   8.47083
 Alpha virt. eigenvalues --    8.47521   8.48981   8.49836   8.52988   8.53890
 Alpha virt. eigenvalues --    8.55369   8.55842   8.58091   8.59691   8.60929
 Alpha virt. eigenvalues --    8.61186   8.61505   8.61793   8.62570   8.64229
 Alpha virt. eigenvalues --    8.64807   8.65895   8.66080   8.68068   8.68975
 Alpha virt. eigenvalues --    8.70085   8.70615   8.72337   8.74272   8.74619
 Alpha virt. eigenvalues --    8.76583   8.77837   8.78112   8.80083   8.80514
 Alpha virt. eigenvalues --    8.81878   8.81982   8.82221   8.82989   8.83516
 Alpha virt. eigenvalues --    8.83945   8.84187   8.84587   8.84768   8.85244
 Alpha virt. eigenvalues --    8.85627   8.86297   8.86664   8.89025   8.90141
 Alpha virt. eigenvalues --    8.90774   8.91482   8.92103   8.92365   8.94357
 Alpha virt. eigenvalues --    8.96308   8.97445   8.98013   8.98118   8.98436
 Alpha virt. eigenvalues --    8.99811   9.00569   9.01144   9.01512   9.02100
 Alpha virt. eigenvalues --    9.02607   9.03074   9.03711   9.05850   9.05999
 Alpha virt. eigenvalues --    9.06663   9.07705   9.09219   9.10151   9.11948
 Alpha virt. eigenvalues --    9.12735   9.13746   9.14515   9.15895   9.16354
 Alpha virt. eigenvalues --    9.17180   9.18022   9.19875   9.20263   9.21544
 Alpha virt. eigenvalues --    9.22822   9.23106   9.23409   9.28252   9.28779
 Alpha virt. eigenvalues --    9.30621   9.31052   9.31693   9.33860   9.34789
 Alpha virt. eigenvalues --    9.34988   9.35191   9.36060   9.37947   9.40827
[...]
 Alpha virt. eigenvalues --   10.57754  10.59605  10.60252  10.61583  10.64401
 Alpha virt. eigenvalues --   10.67948  10.69668  10.70347  10.71757  10.74013
 Alpha virt. eigenvalues --   10.86345  10.87979  10.89383  10.91622  10.93845
 Alpha virt. eigenvalues --   10.94178  10.94501  10.95632  10.96092  10.97273
 Alpha virt. eigenvalues --   10.98509  10.98865  10.99826  11.00416  11.01603
 Alpha virt. eigenvalues --   11.02331  11.04108  11.07784  11.09293  11.11715
 Alpha virt. eigenvalues --   11.14160  11.14843  11.16705  11.17422  11.19162
 Alpha virt. eigenvalues --   11.20024  11.20595  11.21516  11.24224  11.27111
 Alpha virt. eigenvalues --   11.29531  11.31318  11.31823  11.33367  11.33467
 Alpha virt. eigenvalues --   11.34019  11.34396  11.35188  11.36547  11.37237
 Alpha virt. eigenvalues --   11.37781  11.38654  11.39462  11.41786  11.44475
 Alpha virt. eigenvalues --   11.45052  11.48598  11.50557  11.51309  11.52491
 Alpha virt. eigenvalues --   11.53055  11.57841  11.60021  11.60828  11.62756
 Alpha virt. eigenvalues --   11.63808  11.66093  11.68557  11.69875  11.70427
 Alpha virt. eigenvalues --   11.71500  11.73659  11.74593  11.75153  11.75902
 Alpha virt. eigenvalues --   11.77016  11.79751  11.80343  11.81352  11.81830
 Alpha virt. eigenvalues --   11.82228  11.82448  11.86390  11.87390  11.91370
 Alpha virt. eigenvalues --   11.92319  11.93170  11.94130  11.96171  11.96681
 Alpha virt. eigenvalues --   11.97487  11.99699  12.00913  12.02536  12.02970
 Alpha virt. eigenvalues --   12.04425  12.06593  12.15367  12.16088  12.16437
 Alpha virt. eigenvalues --   12.19022  12.20240  12.20417  12.21241  12.23349
 Alpha virt. eigenvalues --   12.25415  12.26748  12.31395  12.31948  12.32705
 Alpha virt. eigenvalues --   12.33822  12.35366  12.52604  12.55104  12.58389
 Alpha virt. eigenvalues --   12.97469  12.98717  13.01588  13.02594  13.03152
 Alpha virt. eigenvalues --   13.05504  13.44714  13.45260  13.47496  13.56832
 Alpha virt. eigenvalues --   13.58824  13.60543  14.20963  14.21508  14.22969
 Alpha virt. eigenvalues --   14.25111  14.26287  14.27254  14.38149  14.39683
 Alpha virt. eigenvalues --   14.41354  14.42157  14.45697  14.46791  14.50113
 Alpha virt. eigenvalues --   14.51520  14.54187  14.60449  14.61594  14.73931
 Alpha virt. eigenvalues --   14.76586  14.80237  14.83439  28.49560  28.50099
 Alpha virt. eigenvalues --   28.51495  28.56598  28.57083  28.60083  37.97214
 Alpha virt. eigenvalues --   37.98225  38.00879  38.01204  38.03858  38.05374
 Alpha virt. eigenvalues --   38.16781  38.17703  38.19649  48.33749  48.35040
 Alpha virt. eigenvalues --   48.37226  48.40059  48.40468  48.41513 145.91823
 Alpha virt. eigenvalues --  145.92483 145.93649 145.99681 146.00294 146.03085
 Alpha virt. eigenvalues --  195.56006 195.57045 195.60134 195.60451 195.63980
 Alpha virt. eigenvalues --  195.64902 195.78181 195.81206 195.83165 251.45387
 Alpha virt. eigenvalues --  251.47026 251.50393 251.53815 251.54335 251.54426
          Condensed to atoms (all electrons):
               1          2          3          4          5          6
     1  N    6.835096   0.190862  -0.172089  -0.182931   0.543433   0.006582
     2  N    0.190862   6.784177   0.571520  -0.158954  -0.197809  -0.078549
     3  C   -0.172089   0.571520   5.100836   0.369933  -0.283763   0.489597
     4  N   -0.182931  -0.158954   0.369933   6.982367   0.350607  -0.074186
     5  C    0.543433  -0.197809  -0.283763   0.350607   5.071404   0.019016
     6  O    0.006582  -0.078549   0.489597  -0.074186   0.019016   7.990907
     7  O   -0.096570   0.005474   0.021975  -0.074171   0.470669   0.000390
     8  H    0.241008  -0.027285   0.000512   0.008506  -0.001959  -0.000531
     9  H   -0.031770   0.252557   0.001176   0.009035  -0.009829  -0.006781
    10  H    0.028143  -0.009186  -0.452118  -0.281715  -0.349310   0.007877
    11  N    0.000433  -0.003348   0.011462   0.020506  -0.003597  -0.063642
    12  N    0.000054   0.000030   0.005688   0.003919   0.000897  -0.000490
    13  C    0.000004   0.000058  -0.001062  -0.001187  -0.000132  -0.000498
    14  N   -0.000009   0.000036  -0.000681   0.000424  -0.000092  -0.000217
    15  C    0.000141   0.000156   0.002965   0.003382   0.001742  -0.004470
    16  O    0.000000   0.000004   0.000032   0.000040  -0.000006   0.000010
    17  O    0.000024  -0.000036  -0.000954   0.000552   0.000280   0.002775
    18  H   -0.001893   0.026006  -0.042840  -0.067706  -0.021013   0.143191
    19  H   -0.000039   0.000254  -0.001349   0.003414   0.000023  -0.001835
    20  H    0.000000  -0.000001   0.000204   0.000019   0.000007   0.000046
    21  N   -0.000010   0.000011  -0.000107  -0.006949  -0.000376  -0.000045
    22  N   -0.000013   0.000007   0.000133   0.001717   0.000478  -0.000007
    23  C    0.000254   0.000154   0.000452   0.011569  -0.000982  -0.000034
    24  N   -0.008380   0.002346   0.020718   0.084561   0.021472   0.000451
    25  C   -0.000410   0.000602  -0.008839   0.006658   0.001870  -0.000901
    26  O    0.000058   0.000000  -0.000143   0.000665  -0.002255  -0.000010
    27  O    0.002415   0.000861   0.023890  -0.032437   0.008179   0.003287
    28  H    0.000011  -0.000009  -0.000235  -0.001208  -0.000725  -0.000003
    29  H    0.000005  -0.000001  -0.000020  -0.000042  -0.000059  -0.000001
    30  H    0.033599  -0.004447  -0.055126  -0.152691  -0.046228  -0.000028
               7          8          9         10         11         12
     1  N   -0.096570   0.241008  -0.031770   0.028143   0.000433   0.000054
     2  N    0.005474  -0.027285   0.252557  -0.009186  -0.003348   0.000030
     3  C    0.021975   0.000512   0.001176  -0.452118   0.011462   0.005688
     4  N   -0.074171   0.008506   0.009035  -0.281715   0.020506   0.003919
     5  C    0.470669  -0.001959  -0.009829  -0.349310  -0.003597   0.000897
     6  O    0.000390  -0.000531  -0.006781   0.007877  -0.063642  -0.000490
     7  O    7.995484   0.006721  -0.000112   0.028416  -0.000249  -0.000000
     8  H    0.006721   0.353482   0.002677   0.000654  -0.000030   0.000005
     9  H   -0.000112   0.002677   0.355941   0.005187   0.000019   0.000016
    10  H    0.028416   0.000654   0.005187   2.095749   0.000712  -0.024201
    11  N   -0.000249  -0.000030   0.000019   0.000712   7.069999   0.101138
    12  N   -0.000000   0.000005   0.000016  -0.024201   0.101138   6.933814
    13  C    0.000026  -0.000000   0.000002   0.001094  -0.145067   0.396796
    14  N    0.000010  -0.000000  -0.000004   0.000306  -0.161841  -0.150790
    15  C   -0.000169  -0.000008   0.000189  -0.007228   0.138224  -0.128531
    16  O   -0.000003  -0.000000  -0.000000  -0.000236   0.010393   0.007635
    17  O    0.000001  -0.000002   0.000014  -0.001529  -0.015458   0.009842
    18  H    0.000820   0.000067   0.000720   0.032370   0.074332   0.023271
    19  H    0.000029  -0.000004  -0.000055   0.010071   0.051726   0.177067
    20  H   -0.000001   0.000000  -0.000000  -0.000135  -0.008760   0.000822
    21  N    0.000999   0.000010   0.000002   0.032281  -0.000573  -0.000349
    22  N   -0.000254  -0.000004   0.000000  -0.002716   0.000351  -0.000238
    23  C   -0.007247  -0.000045  -0.000004  -0.040981  -0.000009   0.000218
    24  N   -0.080544  -0.000556  -0.000077  -0.127243   0.002277  -0.001593
    25  C   -0.008073  -0.000370   0.000066   0.014616   0.054709  -0.024389
    26  O   -0.003033  -0.000025   0.000001  -0.002365  -0.000036   0.000027
    27  O    0.001528   0.000022  -0.000394  -0.087383  -0.083806   0.020247
    28  H   -0.000091  -0.000000  -0.000000   0.002957   0.001285  -0.001196
    29  H    0.000017  -0.000000  -0.000000  -0.000460  -0.000013   0.000036
    30  H    0.200761   0.000857  -0.000231   0.194150  -0.002244   0.001274
              13         14         15         16         17         18
     1  N    0.000004  -0.000009   0.000141   0.000000   0.000024  -0.001893
     2  N    0.000058   0.000036   0.000156   0.000004  -0.000036   0.026006
     3  C   -0.001062  -0.000681   0.002965   0.000032  -0.000954  -0.042840
     4  N   -0.001187   0.000424   0.003382   0.000040   0.000552  -0.067706
     5  C   -0.000132  -0.000092   0.001742  -0.000006   0.000280  -0.021013
     6  O   -0.000498  -0.000217  -0.004470   0.000010   0.002775   0.143191
     7  O    0.000026   0.000010  -0.000169  -0.000003   0.000001   0.000820
     8  H   -0.000000  -0.000000  -0.000008  -0.000000  -0.000002   0.000067
     9  H    0.000002  -0.000004   0.000189  -0.000000   0.000014   0.000720
    10  H    0.001094   0.000306  -0.007228  -0.000236  -0.001529   0.032370
    11  N   -0.145067  -0.161841   0.138224   0.010393  -0.015458   0.074332
    12  N    0.396796  -0.150790  -0.128531   0.007635   0.009842   0.023271
    13  C    4.842366   0.448824  -0.329809   0.429023   0.038216  -0.041126
    14  N    0.448824   6.918188   0.417695  -0.075450  -0.068206   0.001648
    15  C   -0.329809   0.417695   5.446358   0.036029   0.436864  -0.427367
    16  O    0.429023  -0.075450   0.036029   8.031994   0.001349   0.006024
    17  O    0.038216  -0.068206   0.436864   0.001349   7.991183   0.037428
    18  H   -0.041126   0.001648  -0.427367   0.006024   0.037428   1.201169
    19  H   -0.051263  -0.001110  -0.053388   0.007432   0.001261  -0.027558
    20  H    0.004136   0.166968   0.017812   0.028364   0.035531  -0.004866
    21  N   -0.000123   0.000108   0.000088  -0.000077   0.000005  -0.001101
    22  N    0.000055   0.000007   0.000001   0.000011   0.000002  -0.000140
    23  C    0.000021   0.000001   0.000012  -0.000009   0.000001  -0.000318
    24  N    0.000336  -0.000008  -0.000158   0.000033  -0.000016   0.002538
    25  C    0.003770   0.000020   0.001155   0.000405  -0.000310  -0.009630
    26  O   -0.000003  -0.000000   0.000006  -0.000001   0.000001  -0.000011
    27  O   -0.009779   0.001541   0.015281  -0.001183   0.000910   0.010515
    28  H   -0.000045  -0.000085  -0.000150   0.000171  -0.000011   0.000041
    29  H   -0.000019  -0.000001  -0.000001  -0.000007  -0.000000  -0.000001
    30  H   -0.000295  -0.000009   0.000572  -0.000024   0.000018  -0.006200
              19         20         21         22         23         24
     1  N   -0.000039   0.000000  -0.000010  -0.000013   0.000254  -0.008380
     2  N    0.000254  -0.000001   0.000011   0.000007   0.000154   0.002346
     3  C   -0.001349   0.000204  -0.000107   0.000133   0.000452   0.020718
     4  N    0.003414   0.000019  -0.006949   0.001717   0.011569   0.084561
     5  C    0.000023   0.000007  -0.000376   0.000478  -0.000982   0.021472
     6  O   -0.001835   0.000046  -0.000045  -0.000007  -0.000034   0.000451
     7  O    0.000029  -0.000001   0.000999  -0.000254  -0.007247  -0.080544
     8  H   -0.000004   0.000000   0.000010  -0.000004  -0.000045  -0.000556
     9  H   -0.000055  -0.000000   0.000002   0.000000  -0.000004  -0.000077
    10  H    0.010071  -0.000135   0.032281  -0.002716  -0.040981  -0.127243
    11  N    0.051726  -0.008760  -0.000573   0.000351  -0.000009   0.002277
    12  N    0.177067   0.000822  -0.000349  -0.000238   0.000218  -0.001593
    13  C   -0.051263   0.004136  -0.000123   0.000055   0.000021   0.000336
    14  N   -0.001110   0.166968   0.000108   0.000007   0.000001  -0.000008
    15  C   -0.053388   0.017812   0.000088   0.000001   0.000012  -0.000158
    16  O    0.007432   0.028364  -0.000077   0.000011  -0.000009   0.000033
    17  O    0.001261   0.035531   0.000005   0.000002   0.000001  -0.000016
    18  H   -0.027558  -0.004866  -0.001101  -0.000140  -0.000318   0.002538
    19  H    0.487218   0.000251   0.001817   0.000317   0.001105   0.000914
    20  H    0.000251   0.352245   0.000002  -0.000001  -0.000000  -0.000002
    21  N    0.001817   0.000002   6.828813   0.168956  -0.135821  -0.159616
    22  N    0.000317  -0.000001   0.168956   6.865749   0.568711  -0.168595
    23  C    0.001105  -0.000000  -0.135821   0.568711   5.054862   0.380401
    24  N    0.000914  -0.000002  -0.159616  -0.168595   0.380401   7.276647
    25  C    0.011316  -0.000315   0.508819  -0.203572  -0.324680   0.532391
    26  O   -0.000024   0.000000   0.010172  -0.027308   0.469702  -0.063790
    27  O   -0.024249   0.000746  -0.165666  -0.010669   0.007460  -0.175999
    28  H    0.001460  -0.000015   0.246376  -0.024943  -0.001521   0.000193
    29  H    0.000048   0.000000  -0.024491   0.238143   0.011354  -0.004411
    30  H   -0.001427   0.000000   0.071784   0.017531  -0.350183  -0.575558
              25         26         27         28         29         30
     1  N   -0.000410   0.000058   0.002415   0.000011   0.000005   0.033599
     2  N    0.000602   0.000000   0.000861  -0.000009  -0.000001  -0.004447
     3  C   -0.008839  -0.000143   0.023890  -0.000235  -0.000020  -0.055126
     4  N    0.006658   0.000665  -0.032437  -0.001208  -0.000042  -0.152691
     5  C    0.001870  -0.002255   0.008179  -0.000725  -0.000059  -0.046228
     6  O   -0.000901  -0.000010   0.003287  -0.000003  -0.000001  -0.000028
     7  O   -0.008073  -0.003033   0.001528  -0.000091   0.000017   0.200761
     8  H   -0.000370  -0.000025   0.000022  -0.000000  -0.000000   0.000857
     9  H    0.000066   0.000001  -0.000394  -0.000000  -0.000000  -0.000231
    10  H    0.014616  -0.002365  -0.087383   0.002957  -0.000460   0.194150
    11  N    0.054709  -0.000036  -0.083806   0.001285  -0.000013  -0.002244
    12  N   -0.024389   0.000027   0.020247  -0.001196   0.000036   0.001274
    13  C    0.003770  -0.000003  -0.009779  -0.000045  -0.000019  -0.000295
    14  N    0.000020  -0.000000   0.001541  -0.000085  -0.000001  -0.000009
    15  C    0.001155   0.000006   0.015281  -0.000150  -0.000001   0.000572
    16  O    0.000405  -0.000001  -0.001183   0.000171  -0.000007  -0.000024
    17  O   -0.000310   0.000001   0.000910  -0.000011  -0.000000   0.000018
    18  H   -0.009630  -0.000011   0.010515   0.000041  -0.000001  -0.006200
    19  H    0.011316  -0.000024  -0.024249   0.001460   0.000048  -0.001427
    20  H   -0.000315   0.000000   0.000746  -0.000015   0.000000   0.000000
    21  N    0.508819   0.010172  -0.165666   0.246376  -0.024491   0.071784
    22  N   -0.203572  -0.027308  -0.010669  -0.024943   0.238143   0.017531
    23  C   -0.324680   0.469702   0.007460  -0.001521   0.011354  -0.350183
    24  N    0.532391  -0.063790  -0.175999   0.000193  -0.004411  -0.575558
    25  C    5.003076   0.042042   0.172418   0.016372  -0.001040  -0.292453
    26  O    0.042042   8.001961   0.007002  -0.000382   0.007921   0.020113
    27  O    0.172418   0.007002   8.740937   0.006115   0.004075  -0.010787
    28  H    0.016372  -0.000382   0.006115   0.345447  -0.002321   0.001041
    29  H   -0.001040   0.007921   0.004075  -0.002321   0.365623   0.004115
    30  H   -0.292453   0.020113  -0.010787   0.001041   0.004115   2.021759
 Mulliken charges:
               1
     1  N   -0.388008
     2  N   -0.355493
     3  C    0.398234
     4  N    0.176302
     5  C    0.428059
     6  O   -0.431903
     7  O   -0.462804
     8  H    0.416297
     9  H    0.421656
    10  H   -0.067780
    11  N   -0.048893
    12  N   -0.351020
    13  C    0.415681
    14  N   -0.497273
    15  C    0.432607
    16  O   -0.481951
    17  O   -0.469734
    18  H    0.091630
    19  H    0.406575
    20  H    0.406943
    21  N   -0.374938
    22  N   -0.423710
    23  C    0.355559
    24  N    0.041269
    25  C    0.504676
    26  O   -0.460284
    27  O   -0.425078
    28  H    0.411470
    29  H    0.401552
    30  H   -0.069643
 Sum of Mulliken charges =  -0.00000
 Mulliken charges with hydrogens summed into heavy atoms:
               1
     1  N    0.028290
     2  N    0.066163
     3  C    0.398234
     4  N    0.108522
     5  C    0.428059
     6  O   -0.431903
     7  O   -0.462804
    11  N    0.042737
    12  N    0.055555
    13  C    0.415681
    14  N   -0.090330
    15  C    0.432607
    16  O   -0.481951
    17  O   -0.469734
    21  N    0.036532
    22  N   -0.022157
    23  C    0.355559
    24  N   -0.028374
    25  C    0.504676
    26  O   -0.460284
    27  O   -0.425078
 Electronic spatial extent (au):  <R**2>=           7727.1745
 Charge=             -0.0000 electrons
 Dipole moment (field-independent basis, Debye):
    X=             -4.5892    Y=              1.8944    Z=             -0.8827  Tot=              5.0427
 Quadrupole moment (field-independent basis, Debye-Ang):
   XX=           -163.5597   YY=            -80.1439   ZZ=           -126.7233
   XY=             -4.0696   XZ=              5.8962   YZ=             -9.0975
 Traceless Quadrupole moment (field-independent basis, Debye-Ang):
   XX=            -40.0841   YY=             43.3318   ZZ=             -3.2477
   XY=             -4.0696   XZ=              5.8962   YZ=             -9.0975
 Octapole moment (field-independent basis, Debye-Ang**2):
  XXX=            122.6927  YYY=            108.6726  ZZZ=             -5.2881  XYY=           -144.6424
  XXY=             21.2870  XXZ=            -17.1465  XZZ=            -30.0718  YZZ=             -0.1377
  YYZ=             13.8761  XYZ=            -41.8152
 Hexadecapole moment (field-independent basis, Debye-Ang**3):
 XXXX=          -6767.4462 YYYY=          -2471.8283 ZZZZ=           -350.8484 XXXY=           -274.6681
 XXXZ=            150.7036 YYYX=            139.2136 YYYZ=            -45.6914 ZZZX=            -18.3543
 ZZZY=            -15.7673 XXYY=          -1645.7525 XXZZ=          -1145.4207 YYZZ=           -693.9730
 XXYZ=           -161.1598 YYXZ=            151.1047 ZZXY=             -8.2827
 N-N= 1.700559336417D+03 E-N=-6.161744810349D+03  KE= 1.173791596313D+03
 PrsmSu:  requested number of processors reduced to:  15 ShMem   1 Linda.
 No NMR shielding tensors so no spin-rotation constants.
 Leave Link  601 at Mon Apr 19 10:39:08 2021, MaxMem=   104857600 cpu:            2767.8 elap:              60.3
 (Enter /s/ls4/users/knvvv/bin/g16sse/l9999.exe)

 Test job not archived.
 1\1\GINC-N184\Stability\RM062X\Gen\C6H9N9O6\KNVVV\19-Apr-2021\0\\#P M0
 62X/GEN Integral=UltraFineGrid SCF=NoSymm Stable=(RExt, Opt) IOp(1/33=
 1)\\Database calculations.\\0,1\N,0,-0.050072,2.63415,3.305578\N,0,-0.
 508443,1.631479,4.178684\C,0,-0.094523,1.94988,5.442343\N,0,0.428735,3
 .222814,5.356588\C,0,0.451861,3.654419,4.047148\O,0,-0.182753,1.27341,
 6.462645\O,0,0.852126,4.747272,3.641043\H,0,-0.602367,2.840582,2.46379
 6\H,0,-0.455705,0.667432,3.850119\H,0,0.845509,3.735184,6.149304\N,0,1
 .196054,2.12235,8.781654\N,0,0.737684,3.125021,9.654759\C,0,1.151603,2
 .80662,10.918419\N,0,1.674861,1.533686,10.832663\C,0,1.697988,1.102081
 ,9.523224\O,0,1.063373,3.48309,11.938721\O,0,2.098252,0.009228,9.11711
 8\H,0,0.643759,1.915918,7.939872\H,0,0.790422,4.089068,9.326195\H,0,2.
 091636,1.021316,11.62538\N,0,2.542325,6.87885,7.646573\N,0,3.000696,7.
 881521,6.773467\C,0,2.586777,7.56312,5.509808\N,0,2.063518,6.290186,5.
 595564\C,0,2.040392,5.858581,6.905003\O,0,2.675006,8.23959,4.489506\O,
 0,1.640127,4.765728,7.311109\H,0,3.09462,6.672418,8.488355\H,0,2.94795
 8,8.845568,7.102032\H,0,1.646744,5.777816,4.802847\\Version=ES64L-G16R
 evA.03\State=1-A\HF=-1178.3565469\RMSD=1.560e-09\Dipole=-0.4605389,0.8
 249237,-1.7445597\Quadrupole=6.5079956,-3.014878,-3.4931176,7.1483512,
 17.3986904,25.5813157\PG=C01 [X(C6H9N9O6)]\\@


    UPON JULIA'S CLOTHES

 WHENAS IN SILKS MY JULIA GOES,
 THEN, THEN, METHINKS, HOW SWEETLY FLOWS
 THAT LIQUEFACTION OF HER CLOTHES.

 NEXT, WHEN I CAST MINE EYES, AND SEE
 THAT BRAVE VIBRATION, EACH WAY FREE,
 O, HOW THAT GLITTERING TAKETH ME!
     -- ROBERT HERRICK, 1648
 Job cpu time:      22 days 15 hours 35 minutes 36.3 seconds.
 Elapsed time:       2 days  1 hours 15 minutes 42.4 seconds.
 File lengths (MBytes):  RWF=   6127 Int=      0 D2E=      0 Chk=    316 Scr=      1
 Normal termination of Gaussian 16 at Mon Apr 19 10:39:09 2021.
