 Entering Gaussian System, Link 0=/s/ls4/users/knvvv/bin/g16sse/g16
 Input=data/database/M062X--def2-QZVPPD--174_foof_W4-11.gjf
 Output=data/database/M062X--def2-QZVPPD--174_foof_W4-11.log
 Initial command:
 /s/ls4/users/knvvv/bin/g16sse/l1.exe "/s/ls4/users/knvvv/bin/scratch/Gau-15126.inp" -scrdir="/s/ls4/users/knvvv/bin/scratch/"
 Entering Link 1 = /s/ls4/users/knvvv/bin/g16sse/l1.exe PID=     15127.
  
 Copyright (c) 1988,1990,1992,1993,1995,1998,2003,2009,2016,
            Gaussian, Inc.  All Rights Reserved.
  
 This is part of the Gaussian(R) 16 program.  It is based on
 the Gaussian(R) 09 system (copyright 2009, Gaussian, Inc.),
 the Gaussian(R) 03 system (copyright 2003, Gaussian, Inc.),
 the Gaussian(R) 98 system (copyright 1998, Gaussian, Inc.),
 the Gaussian(R) 94 system (copyright 1995, Gaussian, Inc.),
 the Gaussian 92(TM) system (copyright 1992, Gaussian, Inc.),
 the Gaussian 90(TM) system (copyright 1990, Gaussian, Inc.),
 the Gaussian 88(TM) system (copyright 1988, Gaussian, Inc.),
 the Gaussian 86(TM) system (copyright 1986, Carnegie Mellon
 University), and the Gaussian 82(TM) system (copyright 1983,
 Carnegie Mellon University). Gaussian is a federally registered
 trademark of Gaussian, Inc.
  
 This software contains proprietary and confidential information,
 including trade secrets, belonging to Gaussian, Inc.
  
 This software is provided under written license and may be
 used, copied, transmitted, or stored only in accord with that
 written license.
  
 The following legend is applicable only to US Government
 contracts under FAR:
  
                    RESTRICTED RIGHTS LEGEND
  
 Use, reproduction and disclosure by the US Government is
 subject to restrictions as set forth in subparagraphs (a)
 and (c) of the Commercial Computer Software - Restricted
 Rights clause in FAR 52.227-19.
  
 Gaussian, Inc.
 340 Quinnipiac St., Bldg. 40, Wallingford CT 06492
  
  
 ---------------------------------------------------------------
 Warning -- This program may not be used in any manner that
 competes with the business of Gaussian, Inc. or will provide
 assistance to any competitor of Gaussian, Inc.  The licensee
 of this program is prohibited from giving any competitor of
 Gaussian, Inc. access to this program.  By using this program,
 the user acknowledges that Gaussian, Inc. is engaged in the
 business of creating and licensing software in the field of
 computational chemistry and represents and warrants to the
 licensee that it is not a competitor of Gaussian, Inc. and that
 it will not use this program in any manner prohibited above.
 ---------------------------------------------------------------
  

 Cite this work as:
 Gaussian 16, Revision A.03,
 M. J. Frisch, G. W. Trucks, H. B. Schlegel, G. E. Scuseria, 
 M. A. Robb, J. R. Cheeseman, G. Scalmani, V. Barone, 
 G. A. Petersson, H. Nakatsuji, X. Li, M. Caricato, A. V. Marenich, 
 J. Bloino, B. G. Janesko, R. Gomperts, B. Mennucci, H. P. Hratchian, 
 J. V. Ortiz, A. F. Izmaylov, J. L. Sonnenberg, D. Williams-Young, 
 F. Ding, F. Lipparini, F. Egidi, J. Goings, B. Peng, A. Petrone, 
 T. Henderson, D. Ranasinghe, V. G. Zakrzewski, J. Gao, N. Rega, 
 G. Zheng, W. Liang, M. Hada, M. Ehara, K. Toyota, R. Fukuda, 
 J. Hasegawa, M. Ishida, T. Nakajima, Y. Honda, O. Kitao, H. Nakai, 
 T. Vreven, K. Throssell, J. A. Montgomery, Jr., J. E. Peralta, 
 F. Ogliaro, M. J. Bearpark, J. J. Heyd, E. N. Brothers, K. N. Kudin, 
 V. N. Staroverov, T. A. Keith, R. Kobayashi, J. Normand, 
 K. Raghavachari, A. P. Rendell, J. C. Burant, S. S. Iyengar, 
 J. Tomasi, M. Cossi, J. M. Millam, M. Klene, C. Adamo, R. Cammi, 
 J. W. Ochterski, R. L. Martin, K. Morokuma, O. Farkas, 
 J. B. Foresman, and D. J. Fox, Gaussian, Inc., Wallingford CT, 2016.
 
 ******************************************
 Gaussian 16:  ES64L-G16RevA.03 25-Dec-2016
                17-Apr-2021 
 ******************************************
 %RWF=temp10_20997,70GB
 %nprocshared=48
 Will use up to   48 processors via shared memory.
 Default route: MaxDisk=80GB
 ----------------------------------------------------------------------
 #P M062X/GEN Integral=UltraFineGrid SCF=NoSymm Stable=(RExt, Opt) IOp(
 1/33=1)
 ----------------------------------------------------------------------
 1/33=1,38=1,172=1/1;
 2/12=2,17=6,18=5,40=1/2;
 3/5=7,11=2,25=1,30=1,74=-55,75=-5/1,2,3;
 4/9=2/1;
 5/5=2,38=5/2;
 6/7=2,8=2,9=2,10=2,28=1/1;
 8/6=1,10=90,11=11/1;
 9/8=-3,42=1,46=1/14;
 5/5=2,8=3,17=40,38=5/8(-2);
 6/7=2,8=2,9=2,10=2,28=1/1;
 99/5=1,9=1/99;
 Leave Link    1 at Sat Apr 17 13:01:17 2021, MaxMem=           0 cpu:              11.0 elap:               0.3
 (Enter /s/ls4/users/knvvv/bin/g16sse/l101.exe)
 ONIOM data not found on unit 2.
 ----------------------
 Database calculations.
 ----------------------
 TstMul:  ICh=     0
 TstMul:  Mul=     1
 TstMul:  ICh=     0
 TstMul:  Mul=     1
 Symbolic Z-matrix:
 Charge =  0 Multiplicity = 1
 F                     0.        0.        0. 
 O                     0.        0.        1.5323 
 O                     1.17059   0.        1.92303 
 F                     1.65066   1.45211   2.01708 
 
 RdStrC is calling ZToCFu for IStruc=1 NZ=     4.
 PrtBox:  NBox=     1 Levels=  1 BoxLen=    8.00 SMaxX=        3.81
          Shift=            0.000000            0.000000            0.000000
 Box      1 Number                   0 centers from      1 to      4:
 After GenITR:
 ITRead=  0  0  0  0
 MicOpt= -1 -1 -1 -1
 ITRead=  0  0  0  0
 MicOpt= -1 -1 -1 -1
 NAtoms=      4 NQM=        4 NQMF=       0 NMMI=      0 NMMIF=      0
                NMic=       0 NMicF=      0.
                    Isotopes and Nuclear Properties:
 (Nuclear quadrupole moments (NQMom) in fm**2, nuclear magnetic moments (NMagM)
  in nuclear magnetons)

  Atom         1           2           3           4
 IAtWgt=          19          16          16          19
 AtmWgt=  18.9984033  15.9949146  15.9949146  18.9984033
 NucSpn=           1           0           0           1
 AtZEff=  -0.0000000  -0.0000000  -0.0000000  -0.0000000
 NQMom=    0.0000000   0.0000000   0.0000000   0.0000000
 NMagM=    2.6288670   0.0000000   0.0000000   2.6288670
 AtZNuc=   9.0000000   8.0000000   8.0000000   9.0000000
 No MM parameters found.
 Leave Link  101 at Sat Apr 17 13:01:17 2021, MaxMem=   104857600 cpu:               6.9 elap:               0.2
 (Enter /s/ls4/users/knvvv/bin/g16sse/l202.exe)
                          Input orientation:                          
 ---------------------------------------------------------------------
 Center     Atomic      Atomic             Coordinates (Angstroms)
 Number     Number       Type             X           Y           Z
 ---------------------------------------------------------------------
      1          9           0        0.000000    0.000000    0.000000
      2          8           0        0.000000    0.000000    1.532297
      3          8           0        1.170585    0.000000    1.923028
      4          9           0        1.650660    1.452108    2.017076
 ---------------------------------------------------------------------
                    Distance matrix (angstroms):
                    1          2          3          4
     1  F    0.000000
     2  O    1.532297   0.000000
     3  O    2.251290   1.234075   0.000000
     4  F    2.983604   2.251290   1.532297   0.000000
 Stoichiometry    F2O2
 Framework group  C2[X(F2O2)]
 Deg. of freedom     4
 Full point group                 C2      NOp   2
 Largest Abelian subgroup         C2      NOp   2
 Largest concise Abelian subgroup C2      NOp   2
                         Standard orientation:                         
 ---------------------------------------------------------------------
 Center     Atomic      Atomic             Coordinates (Angstroms)
 Number     Number       Type             X           Y           Z
 ---------------------------------------------------------------------
      1          9           0        0.555710    1.384434   -0.493986
      2          8           0        0.555710    0.268181    0.555734
      3          8           0       -0.555710   -0.268181    0.555734
      4          9           0       -0.555710   -1.384434   -0.493986
 ---------------------------------------------------------------------
 Rotational constants (GHZ):          20.8474205           5.2240679           4.5622428
 Leave Link  202 at Sat Apr 17 13:01:18 2021, MaxMem=   104857600 cpu:               8.5 elap:               0.2
 (Enter /s/ls4/users/knvvv/bin/g16sse/l301.exe)
 General basis read from cards:  (5D, 7F)
 Centers:       2      3
 S 8 1.00
     Exponent=  1.1650646908D+05 Coefficients=  4.0383857939D-05
     Exponent=  1.7504349724D+04 Coefficients=  3.1255139004D-04
     Exponent=  3.9934513230D+03 Coefficients=  1.6341473495D-03
     Exponent=  1.1330063186D+03 Coefficients=  6.8283224757D-03
     Exponent=  3.6999569594D+02 Coefficients=  2.4124410221D-02
     Exponent=  1.3362074349D+02 Coefficients=  7.2730206154D-02
     Exponent=  5.2035643649D+01 Coefficients=  1.7934429892D-01
     Exponent=  2.1461939313D+01 Coefficients=  3.3059588895D-01
 S 2 1.00
     Exponent=  8.9835051252D+01 Coefficients=  9.6468652996D-02
     Exponent=  2.6428010844D+01 Coefficients=  9.4117481120D-01
 S 1 1.00
     Exponent=  9.2822824649D+00 Coefficients=  1.0000000000D+00
 S 1 1.00
     Exponent=  4.0947728533D+00 Coefficients=  1.0000000000D+00
 S 1 1.00
     Exponent=  1.3255349078D+00 Coefficients=  1.0000000000D+00
 S 1 1.00
     Exponent=  5.1877230787D-01 Coefficients=  1.0000000000D+00
 S 1 1.00
     Exponent=  1.9772676454D-01 Coefficients=  1.0000000000D+00
 S 1 1.00
     Exponent=  6.9638535104D-02 Coefficients=  1.0000000000D+00
 P 5 1.00
     Exponent=  1.9115255810D+02 Coefficients=  2.5115697705D-03
     Exponent=  4.5233356739D+01 Coefficients=  2.0039240864D-02
     Exponent=  1.4353465922D+01 Coefficients=  9.3609064762D-02
     Exponent=  5.2422371832D+00 Coefficients=  3.0618127124D-01
     Exponent=  2.0792418599D+00 Coefficients=  6.7810501439D-01
 P 1 1.00
     Exponent=  8.4282371424D-01 Coefficients=  1.0000000000D+00
 P 1 1.00
     Exponent=  3.3617694891D-01 Coefficients=  1.0000000000D+00
 P 1 1.00
     Exponent=  1.2863997974D-01 Coefficients=  1.0000000000D+00
 P 1 1.00
     Exponent=  4.3598162776D-02 Coefficients=  1.0000000000D+00
 D 1 1.00
     Exponent=  3.7750000000D+00 Coefficients=  1.0000000000D+00
 D 1 1.00
     Exponent=  1.3000000000D+00 Coefficients=  1.0000000000D+00
 D 1 1.00
     Exponent=  4.4400000000D-01 Coefficients=  1.0000000000D+00
 D 1 1.00
     Exponent=  1.2546378695D-01 Coefficients=  1.0000000000D+00
 F 1 1.00
     Exponent=  2.6660000000D+00 Coefficients=  1.0000000000D+00
 F 1 1.00
     Exponent=  8.5900000000D-01 Coefficients=  1.0000000000D+00
 G 1 1.00
     Exponent=  1.8460000000D+00 Coefficients=  1.0000000000D+00
 ****
 Centers:       1      4
 S 8 1.00
     Exponent=  1.3253597345D+05 Coefficients=  4.7387482743D-05
     Exponent=  1.9758112588D+04 Coefficients=  3.7070120897D-04
     Exponent=  4.4851996947D+03 Coefficients=  1.9450784713D-03
     Exponent=  1.2738151020D+03 Coefficients=  8.0573291994D-03
     Exponent=  4.1893831236D+02 Coefficients=  2.7992880781D-02
     Exponent=  1.5255721985D+02 Coefficients=  8.2735120175D-02
     Exponent=  5.9821524823D+01 Coefficients=  1.9854169012D-01
     Exponent=  2.4819076932D+01 Coefficients=  3.4860632233D-01
 S 2 1.00
     Exponent=  1.0074446673D+02 Coefficients=  1.0505068816D-01
     Exponent=  3.0103728290D+01 Coefficients=  9.4068472434D-01
 S 1 1.00
     Exponent=  1.0814283272D+01 Coefficients=  1.0000000000D+00
 S 1 1.00
     Exponent=  4.8172886770D+00 Coefficients=  1.0000000000D+00
 S 1 1.00
     Exponent=  1.6559334213D+00 Coefficients=  1.0000000000D+00
 S 1 1.00
     Exponent=  6.4893519582D-01 Coefficients=  1.0000000000D+00
 S 1 1.00
     Exponent=  2.4778104545D-01 Coefficients=  1.0000000000D+00
 S 1 1.00
     Exponent=  8.7626236800D-02 Coefficients=  1.0000000000D+00
 P 5 1.00
     Exponent=  2.4096654114D+02 Coefficients=  3.0389933451D-03
     Exponent=  5.7020699781D+01 Coefficients=  2.4357738582D-02
     Exponent=  1.8126952120D+01 Coefficients=  1.1442925768D-01
     Exponent=  6.6457404621D+00 Coefficients=  3.7064659853D-01
     Exponent=  2.6375722892D+00 Coefficients=  7.9791551766D-01
 P 1 1.00
     Exponent=  1.0638217200D+00 Coefficients=  1.0000000000D+00
 P 1 1.00
     Exponent=  4.1932562750D-01 Coefficients=  1.0000000000D+00
 P 1 1.00
     Exponent=  1.5747588299D-01 Coefficients=  1.0000000000D+00
 P 1 1.00
     Exponent=  4.6772400332D-02 Coefficients=  1.0000000000D+00
 D 1 1.00
     Exponent=  5.0140000000D+00 Coefficients=  1.0000000000D+00
 D 1 1.00
     Exponent=  1.7250000000D+00 Coefficients=  1.0000000000D+00
 D 1 1.00
     Exponent=  5.8600000000D-01 Coefficients=  1.0000000000D+00
 D 1 1.00
     Exponent=  1.5967986245D-01 Coefficients=  1.0000000000D+00
 F 1 1.00
     Exponent=  3.5620000000D+00 Coefficients=  1.0000000000D+00
 F 1 1.00
     Exponent=  1.1480000000D+00 Coefficients=  1.0000000000D+00
 G 1 1.00
     Exponent=  2.3760000000D+00 Coefficients=  1.0000000000D+00
 ****
 Ernie: Thresh=  0.10000D-02 Tol=  0.10000D-05 Strict=F.
 There are   164 symmetry adapted cartesian basis functions of A   symmetry.
 There are   164 symmetry adapted cartesian basis functions of B   symmetry.
 There are   132 symmetry adapted basis functions of A   symmetry.
 There are   132 symmetry adapted basis functions of B   symmetry.
   264 basis functions,   408 primitive gaussians,   328 cartesian basis functions
    17 alpha electrons       17 beta electrons
       nuclear repulsion energy       125.3879884211 Hartrees.
 IExCor= 4336 DFT=T Ex+Corr=M062X ExCW=0 ScaHFX=  0.540000
 ScaDFX=  1.000000  1.000000  1.000000  1.000000 ScalE2=  1.000000  1.000000
 IRadAn=      5 IRanWt=     -1 IRanGd=            0 ICorTp=0 IEmpDi=  4
 NAtoms=    4 NActive=    4 NUniq=    2 SFac= 4.00D+00 NAtFMM=   60 NAOKFM=F Big=F
 Integral buffers will be    131072 words long.
 Raffenetti 2 integral format.
 Two-electron integral symmetry is turned on.
 Leave Link  301 at Sat Apr 17 13:01:18 2021, MaxMem=   104857600 cpu:               5.9 elap:               0.2
 (Enter /s/ls4/users/knvvv/bin/g16sse/l302.exe)
 NPDir=0 NMtPBC=     1 NCelOv=     1 NCel=       1 NClECP=     1 NCelD=      1
         NCelK=      1 NCelE2=     1 NClLst=     1 CellRange=     0.0.
 One-electron integrals computed using PRISM.
 One-electron integral symmetry used in STVInt
 PrsmSu:  requested number of processors reduced to:   4 ShMem   1 Linda.
 PrsmSu:  requested number of processors reduced to:  21 ShMem   1 Linda.
 NBasis=   264 RedAO= T EigKep=  1.08D-04  NBF=   132   132
 NBsUse=   264 1.00D-06 EigRej= -1.00D+00 NBFU=   132   132
 Precomputing XC quadrature grid using
 IXCGrd= 4 IRadAn=           5 IRanWt=          -1 IRanGd=           0 AccXCQ= 0.00D+00.
 Generated NRdTot=       0 NPtTot=           0 NUsed=           0 NTot=          32
 NSgBfM=   325   325   325   325   325 MxSgAt=     4 MxSgA2=     4.
 Leave Link  302 at Sat Apr 17 13:01:28 2021, MaxMem=   104857600 cpu:             469.4 elap:              10.1
 (Enter /s/ls4/users/knvvv/bin/g16sse/l303.exe)
 DipDrv:  MaxL=1.
 Leave Link  303 at Sat Apr 17 13:01:30 2021, MaxMem=   104857600 cpu:              72.4 elap:               1.6
 (Enter /s/ls4/users/knvvv/bin/g16sse/l401.exe)
 SCF N**3 symmetry information disabled.
 ExpMin= 4.36D-02 ExpMax= 1.33D+05 ExpMxC= 1.27D+03 IAcc=3 IRadAn=         5 AccDes= 0.00D+00
 Harris functional with IExCor= 1009 and IRadAn=       5 diagonalized for initial guess.
 HarFok:  IExCor= 1009 AccDes= 0.00D+00 IRadAn=         5 IDoV= 1 UseB2=F ITyADJ=14
 ICtDFT=  3500011 ScaDFX=  1.000000  1.000000  1.000000  1.000000
 FoFCou: FMM=F IPFlag=           0 FMFlag=      100000 FMFlg1=           0
         NFxFlg=           0 DoJE=T BraDBF=F KetDBF=T FulRan=T
         wScrn=  0.000000 ICntrl=       500 IOpCl=  0 I1Cent=   200000004 NGrid=           0
         NMat0=    1 NMatS0=      1 NMatT0=    0 NMatD0=    1 NMtDS0=    0 NMtDT0=    0
 Petite list used in FoFCou.
 CoulSu:  requested number of processors reduced to:  20 ShMem   1 Linda.
 CoulSu:  requested number of processors reduced to:  21 ShMem   1 Linda.
 CoulSu:  requested number of processors reduced to:  21 ShMem   1 Linda.
 CoulSu:  requested number of processors reduced to:  21 ShMem   1 Linda.
 Harris En= -349.740564768213    
 JPrj=0 DoOrth=F DoCkMO=F.
 Initial guess orbital symmetries:
       Occupied  (B) (A) (A) (B) (A) (B) (A) (B) (A) (B) (A) (A)
                 (B) (B) (A) (B) (A)
       Virtual   (A) (B) (A) (B) (A) (B) (B) (A) (A) (A) (B) (B)
                 (A) (B) (A) (B) (B) (B) (A) (B) (A) (A) (A) (B)
                 (A) (B) (B) (A) (A) (B) (B) (B) (A) (A) (B) (A)
                 (A) (B) (B) (A) (B) (B) (A) (A) (B) (A) (B) (A)
                 (B) (B) (A) (A) (B) (A) (A) (B) (B) (B) (A) (B)
                 (A) (B) (A) (B) (A) (B) (A) (A) (B) (B) (A) (A)
                 (B) (B) (A) (A) (B) (A) (B) (A) (B) (A) (B) (B)
                 (A) (B) (A) (A) (B) (A) (B) (A) (B) (A) (A) (B)
                 (A) (B) (B) (A) (A) (B) (A) (B) (A) (B) (A) (B)
                 (B) (A) (A) (B) (B) (A) (A) (B) (A) (B) (B) (B)
                 (A) (B) (A) (A) (B) (B) (A) (B) (A) (A) (B) (B)
                 (A) (A) (B) (A) (B) (A) (B) (B) (A) (A) (A) (B)
                 (B) (A) (B) (A) (B) (A) (B) (A) (B) (A) (B) (A)
                 (B) (A) (B) (A) (A) (B) (B) (A) (A) (B) (B) (B)
                 (A) (A) (B) (A) (B) (B) (A) (B) (A) (B) (A) (B)
                 (A) (B) (A) (B) (A) (B) (A) (A) (B) (B) (A) (B)
                 (A) (B) (A) (A) (B) (A) (B) (B) (A) (A) (B) (A)
                 (B) (A) (B) (A) (B) (A) (B) (A) (A) (B) (A) (B)
                 (A) (B) (B) (A) (A) (B) (A) (B) (A) (B) (B) (B)
                 (A) (A) (B) (B) (A) (B) (A) (B) (A) (A) (B) (A)
                 (B) (A) (B) (A) (B) (A) (B)
 The electronic state of the initial guess is 1-A.
 Leave Link  401 at Sat Apr 17 13:01:33 2021, MaxMem=   104857600 cpu:             171.0 elap:               3.9
 (Enter /s/ls4/users/knvvv/bin/g16sse/l502.exe)
 Integral symmetry usage will be decided dynamically.
 Closed shell SCF:
 Using DIIS extrapolation, IDIIS=  1040.
 NGot=   104857600 LenX=   104623424 LenY=   104515399
 Requested convergence on RMS density matrix=1.00D-08 within 128 cycles.
 Requested convergence on MAX density matrix=1.00D-06.
 Requested convergence on             energy=1.00D-06.
 No special actions if energy rises.
 Fock matrices will be formed incrementally for  20 cycles.

 Cycle   1  Pass 1  IDiag  1:
 FoFJK:  IHMeth= 1 ICntrl=       0 DoSepK=F KAlg= 0 I1Cent=           0 FoldK=F
 IRaf= 960000000 NMat=       1 IRICut=       1 DoRegI=T DoRafI=F ISym2E= 1 IDoP0=0 IntGTp=1.
 FoFCou: FMM=F IPFlag=           0 FMFlag=      100000 FMFlg1=           0
         NFxFlg=           0 DoJE=F BraDBF=F KetDBF=F FulRan=T
         wScrn=  0.000000 ICntrl=         0 IOpCl=  0 I1Cent=           0 NGrid=           0
         NMat0=    1 NMatS0=      1 NMatT0=    0 NMatD0=    1 NMtDS0=    0 NMtDT0=    0
 Petite list used in FoFCou.
 CoulSu:  requested number of processors reduced to:  21 ShMem   1 Linda.
 E= -349.683495104091    
 DIIS: error= 4.17D-02 at cycle   1 NSaved=   1.
 NSaved= 1 IEnMin= 1 EnMin= -349.683495104091     IErMin= 1 ErrMin= 4.17D-02
 ErrMax= 4.17D-02  0.00D+00 EMaxC= 1.00D-01 BMatC= 3.21D-01 BMatP= 3.21D-01
 IDIUse=3 WtCom= 5.83D-01 WtEn= 4.17D-01
 Coeff-Com:  0.100D+01
 Coeff-En:   0.100D+01
 Coeff:      0.100D+01
 Gap=     0.328 Goal=   None    Shift=    0.000
 GapD=    0.328 DampG=1.000 DampE=0.500 DampFc=0.5000 IDamp=-1.
 Damping current iteration by 5.00D-01
 RMSDP=1.94D-03 MaxDP=4.88D-02              OVMax= 3.89D-01

 Cycle   2  Pass 1  IDiag  1:
 RMSU=  9.65D-04    CP:  9.90D-01
 CoulSu:  requested number of processors reduced to:  21 ShMem   1 Linda.
 E= -349.669639574625     Delta-E=        0.013855529466 Rises=F Damp=T
 DIIS: error= 1.92D-02 at cycle   2 NSaved=   2.
 NSaved= 2 IEnMin= 1 EnMin= -349.683495104091     IErMin= 2 ErrMin= 1.92D-02
 ErrMax= 1.92D-02  0.00D+00 EMaxC= 1.00D-01 BMatC= 1.25D-01 BMatP= 3.21D-01
 IDIUse=3 WtCom= 8.08D-01 WtEn= 1.92D-01
 Coeff-Com:  0.306D+00 0.694D+00
 Coeff-En:   0.530D+00 0.470D+00
 Coeff:      0.349D+00 0.651D+00
 Gap=     0.390 Goal=   None    Shift=    0.000
 RMSDP=5.23D-04 MaxDP=1.50D-02 DE= 1.39D-02 OVMax= 2.05D-01

 Cycle   3  Pass 1  IDiag  1:
 RMSU=  4.08D-04    CP:  1.01D+00  6.84D-01
 CoulSu:  requested number of processors reduced to:  21 ShMem   1 Linda.
 E= -349.839086436141     Delta-E=       -0.169446861516 Rises=F Damp=F
 DIIS: error= 4.26D-03 at cycle   3 NSaved=   3.
 NSaved= 3 IEnMin= 3 EnMin= -349.839086436141     IErMin= 3 ErrMin= 4.26D-03
 ErrMax= 4.26D-03  0.00D+00 EMaxC= 1.00D-01 BMatC= 5.97D-03 BMatP= 1.25D-01
 IDIUse=3 WtCom= 9.57D-01 WtEn= 4.26D-02
 Coeff-Com: -0.557D-01 0.143D+00 0.913D+00
 Coeff-En:   0.000D+00 0.000D+00 0.100D+01
 Coeff:     -0.534D-01 0.137D+00 0.916D+00
 Gap=     0.375 Goal=   None    Shift=    0.000
 RMSDP=1.95D-04 MaxDP=7.04D-03 DE=-1.69D-01 OVMax= 3.38D-02

 Cycle   4  Pass 1  IDiag  1:
 RMSU=  1.49D-04    CP:  1.00D+00  8.08D-01  1.00D+00
 CoulSu:  requested number of processors reduced to:  21 ShMem   1 Linda.
 E= -349.843965313340     Delta-E=       -0.004878877199 Rises=F Damp=F
 DIIS: error= 1.38D-03 at cycle   4 NSaved=   4.
 NSaved= 4 IEnMin= 4 EnMin= -349.843965313340     IErMin= 4 ErrMin= 1.38D-03
 ErrMax= 1.38D-03  0.00D+00 EMaxC= 1.00D-01 BMatC= 4.92D-04 BMatP= 5.97D-03
 IDIUse=3 WtCom= 9.86D-01 WtEn= 1.38D-02
 Coeff-Com: -0.171D-01 0.202D-01 0.289D+00 0.708D+00
 Coeff-En:   0.000D+00 0.000D+00 0.000D+00 0.100D+01
 Coeff:     -0.169D-01 0.199D-01 0.285D+00 0.712D+00
 Gap=     0.377 Goal=   None    Shift=    0.000
 RMSDP=3.79D-05 MaxDP=8.48D-04 DE=-4.88D-03 OVMax= 5.78D-03

 Cycle   5  Pass 1  IDiag  1:
 RMSU=  3.05D-05    CP:  1.00D+00  8.18D-01  1.04D+00  1.08D+00
 CoulSu:  requested number of processors reduced to:  21 ShMem   1 Linda.
 E= -349.844336052194     Delta-E=       -0.000370738854 Rises=F Damp=F
 DIIS: error= 4.22D-04 at cycle   5 NSaved=   5.
 NSaved= 5 IEnMin= 5 EnMin= -349.844336052194     IErMin= 5 ErrMin= 4.22D-04
 ErrMax= 4.22D-04  0.00D+00 EMaxC= 1.00D-01 BMatC= 4.55D-05 BMatP= 4.92D-04
 IDIUse=3 WtCom= 9.96D-01 WtEn= 4.22D-03
 Coeff-Com:  0.863D-02-0.191D-01-0.682D-01-0.553D-01 0.113D+01
 Coeff-En:   0.000D+00 0.000D+00 0.000D+00 0.000D+00 0.100D+01
 Coeff:      0.859D-02-0.190D-01-0.679D-01-0.551D-01 0.113D+01
 Gap=     0.379 Goal=   None    Shift=    0.000
 RMSDP=2.97D-05 MaxDP=5.50D-04 DE=-3.71D-04 OVMax= 5.43D-03

 Cycle   6  Pass 1  IDiag  1:
 RMSU=  1.62D-05    CP:  1.00D+00  8.25D-01  1.07D+00  1.20D+00  1.35D+00
 CoulSu:  requested number of processors reduced to:  21 ShMem   1 Linda.
 E= -349.844429093807     Delta-E=       -0.000093041613 Rises=F Damp=F
 DIIS: error= 1.68D-04 at cycle   6 NSaved=   6.
 NSaved= 6 IEnMin= 6 EnMin= -349.844429093807     IErMin= 6 ErrMin= 1.68D-04
 ErrMax= 1.68D-04  0.00D+00 EMaxC= 1.00D-01 BMatC= 7.89D-06 BMatP= 4.55D-05
 IDIUse=3 WtCom= 9.98D-01 WtEn= 1.68D-03
 Coeff-Com:  0.488D-02-0.853D-02-0.372D-01-0.936D-01 0.213D+00 0.922D+00
 Coeff-En:   0.000D+00 0.000D+00 0.000D+00 0.000D+00 0.000D+00 0.100D+01
 Coeff:      0.488D-02-0.852D-02-0.371D-01-0.934D-01 0.212D+00 0.922D+00
 Gap=     0.380 Goal=   None    Shift=    0.000
 RMSDP=9.46D-06 MaxDP=2.41D-04 DE=-9.30D-05 OVMax= 1.82D-03

 Cycle   7  Pass 1  IDiag  1:
 RMSU=  4.06D-06    CP:  1.00D+00  8.27D-01  1.08D+00  1.24D+00  1.52D+00
                    CP:  1.13D+00
 CoulSu:  requested number of processors reduced to:  21 ShMem   1 Linda.
 E= -349.844438978114     Delta-E=       -0.000009884307 Rises=F Damp=F
 DIIS: error= 5.81D-05 at cycle   7 NSaved=   7.
 NSaved= 7 IEnMin= 7 EnMin= -349.844438978114     IErMin= 7 ErrMin= 5.81D-05
 ErrMax= 5.81D-05  0.00D+00 EMaxC= 1.00D-01 BMatC= 7.60D-07 BMatP= 7.89D-06
 IDIUse=1 WtCom= 1.00D+00 WtEn= 0.00D+00
 Coeff-Com:  0.114D-03-0.870D-04 0.633D-02 0.962D-02-0.905D-01-0.287D-01
 Coeff-Com:  0.110D+01
 Coeff:      0.114D-03-0.870D-04 0.633D-02 0.962D-02-0.905D-01-0.287D-01
 Coeff:      0.110D+01
 Gap=     0.380 Goal=   None    Shift=    0.000
 RMSDP=2.64D-06 MaxDP=6.82D-05 DE=-9.88D-06 OVMax= 3.80D-04

 Cycle   8  Pass 1  IDiag  1:
 RMSU=  8.64D-07    CP:  1.00D+00  8.27D-01  1.08D+00  1.24D+00  1.55D+00
                    CP:  1.24D+00  1.24D+00
 CoulSu:  requested number of processors reduced to:  21 ShMem   1 Linda.
 E= -349.844439831499     Delta-E=       -0.000000853385 Rises=F Damp=F
 DIIS: error= 5.47D-06 at cycle   8 NSaved=   8.
 NSaved= 8 IEnMin= 8 EnMin= -349.844439831499     IErMin= 8 ErrMin= 5.47D-06
 ErrMax= 5.47D-06  0.00D+00 EMaxC= 1.00D-01 BMatC= 9.94D-09 BMatP= 7.60D-07
 IDIUse=1 WtCom= 1.00D+00 WtEn= 0.00D+00
 Coeff-Com: -0.194D-03 0.341D-03 0.179D-02 0.516D-02-0.114D-01-0.433D-01
 Coeff-Com:  0.542D-01 0.993D+00
 Coeff:     -0.194D-03 0.341D-03 0.179D-02 0.516D-02-0.114D-01-0.433D-01
 Coeff:      0.542D-01 0.993D+00
 Gap=     0.380 Goal=   None    Shift=    0.000
 RMSDP=4.90D-07 MaxDP=8.13D-06 DE=-8.53D-07 OVMax= 9.12D-05

 Cycle   9  Pass 1  IDiag  1:
 RMSU=  2.66D-07    CP:  1.00D+00  8.27D-01  1.08D+00  1.24D+00  1.55D+00
                    CP:  1.25D+00  1.29D+00  1.29D+00
 CoulSu:  requested number of processors reduced to:  21 ShMem   1 Linda.
 E= -349.844439859559     Delta-E=       -0.000000028060 Rises=F Damp=F
 DIIS: error= 2.34D-06 at cycle   9 NSaved=   9.
 NSaved= 9 IEnMin= 9 EnMin= -349.844439859559     IErMin= 9 ErrMin= 2.34D-06
 ErrMax= 2.34D-06  0.00D+00 EMaxC= 1.00D-01 BMatC= 1.67D-09 BMatP= 9.94D-09
 IDIUse=1 WtCom= 1.00D+00 WtEn= 0.00D+00
 Coeff-Com: -0.502D-05 0.710D-05-0.102D-02-0.193D-02 0.111D-01 0.676D-02
 Coeff-Com: -0.126D+00-0.625D-01 0.117D+01
 Coeff:     -0.502D-05 0.710D-05-0.102D-02-0.193D-02 0.111D-01 0.676D-02
 Coeff:     -0.126D+00-0.625D-01 0.117D+01
 Gap=     0.380 Goal=   None    Shift=    0.000
 RMSDP=2.59D-07 MaxDP=4.74D-06 DE=-2.81D-08 OVMax= 5.31D-05

 Cycle  10  Pass 1  IDiag  1:
 RMSU=  8.85D-08    CP:  1.00D+00  8.27D-01  1.08D+00  1.24D+00  1.55D+00
                    CP:  1.26D+00  1.31D+00  1.49D+00  1.50D+00
 CoulSu:  requested number of processors reduced to:  21 ShMem   1 Linda.
 E= -349.844439865831     Delta-E=       -0.000000006271 Rises=F Damp=F
 DIIS: error= 6.50D-07 at cycle  10 NSaved=  10.
 NSaved=10 IEnMin=10 EnMin= -349.844439865831     IErMin=10 ErrMin= 6.50D-07
 ErrMax= 6.50D-07  0.00D+00 EMaxC= 1.00D-01 BMatC= 1.67D-10 BMatP= 1.67D-09
 IDIUse=1 WtCom= 1.00D+00 WtEn= 0.00D+00
 Coeff-Com:  0.159D-04-0.257D-04-0.107D-03-0.499D-03 0.913D-03 0.538D-02
 Coeff-Com: -0.108D-02-0.105D+00-0.153D+00 0.125D+01
 Coeff:      0.159D-04-0.257D-04-0.107D-03-0.499D-03 0.913D-03 0.538D-02
 Coeff:     -0.108D-02-0.105D+00-0.153D+00 0.125D+01
 Gap=     0.380 Goal=   None    Shift=    0.000
 RMSDP=9.76D-08 MaxDP=1.71D-06 DE=-6.27D-09 OVMax= 2.07D-05

 Cycle  11  Pass 1  IDiag  1:
 RMSU=  1.93D-08    CP:  1.00D+00  8.27D-01  1.08D+00  1.24D+00  1.55D+00
                    CP:  1.26D+00  1.32D+00  1.56D+00  1.75D+00  1.40D+00
 CoulSu:  requested number of processors reduced to:  21 ShMem   1 Linda.
 E= -349.844439866449     Delta-E=       -0.000000000618 Rises=F Damp=F
 DIIS: error= 1.36D-07 at cycle  11 NSaved=  11.
 NSaved=11 IEnMin=11 EnMin= -349.844439866449     IErMin=11 ErrMin= 1.36D-07
 ErrMax= 1.36D-07  0.00D+00 EMaxC= 1.00D-01 BMatC= 4.51D-12 BMatP= 1.67D-10
 IDIUse=1 WtCom= 1.00D+00 WtEn= 0.00D+00
 Coeff-Com:  0.852D-06-0.156D-05 0.406D-04 0.305D-04-0.467D-03 0.840D-04
 Coeff-Com:  0.496D-02 0.487D-02-0.611D-01 0.592D-01 0.992D+00
 Coeff:      0.852D-06-0.156D-05 0.406D-04 0.305D-04-0.467D-03 0.840D-04
 Coeff:      0.496D-02 0.487D-02-0.611D-01 0.592D-01 0.992D+00
 Gap=     0.380 Goal=   None    Shift=    0.000
 RMSDP=9.92D-09 MaxDP=2.24D-07 DE=-6.18D-10 OVMax= 2.07D-06

 SCF Done:  E(RM062X) =  -349.844439866     A.U. after   11 cycles
            NFock= 11  Conv=0.99D-08     -V/T= 2.0034
 KE= 3.486674009204D+02 PE=-1.082278775864D+03 EE= 2.583789466561D+02
 Leave Link  502 at Sat Apr 17 13:01:59 2021, MaxMem=   104857600 cpu:             912.2 elap:              25.5
 (Enter /s/ls4/users/knvvv/bin/g16sse/l601.exe)
 Copying SCF densities to generalized density rwf, IOpCl= 0 IROHF=0.

 **********************************************************************

            Population analysis using the SCF density.

 **********************************************************************

 Orbital symmetries:
       Occupied  (B) (A) (A) (B) (A) (B) (A) (B) (A) (B) (A) (A)
                 (B) (B) (A) (B) (A)
       Virtual   (B) (A) (A) (B) (A) (B) (B) (A) (A) (A) (B) (A)
                 (B) (B) (A) (B) (B) (A) (B) (B) (A) (A) (B) (A)
                 (A) (B) (B) (A) (B) (A) (B) (A) (B) (A) (A) (B)
                 (A) (B) (B) (A) (B) (B) (A) (A) (B) (A) (B) (A)
                 (B) (A) (B) (A) (B) (A) (A) (B) (B) (B) (A) (B)
                 (A) (B) (A) (B) (A) (B) (A) (A) (B) (B) (A) (A)
                 (B) (A) (B) (A) (B) (A) (B) (A) (A) (B) (B) (B)
                 (A) (B) (A) (A) (B) (A) (B) (A) (B) (A) (A) (B)
                 (A) (B) (B) (A) (A) (B) (A) (B) (B) (A) (B) (B)
                 (A) (A) (B) (A) (B) (A) (A) (B) (B) (A) (B) (B)
                 (A) (B) (A) (A) (B) (B) (A) (B) (A) (A) (B) (A)
                 (B) (A) (B) (A) (B) (B) (A) (B) (A) (A) (A) (B)
                 (A) (B) (B) (A) (B) (A) (B) (A) (B) (A) (A) (B)
                 (B) (A) (B) (A) (A) (B) (B) (A) (A) (B) (B) (A)
                 (B) (A) (B) (B) (A) (B) (A) (B) (A) (B) (A) (B)
                 (A) (B) (A) (B) (A) (B) (A) (B) (A) (B) (A) (B)
                 (A) (B) (A) (A) (A) (B) (B) (B) (A) (A) (B) (A)
                 (B) (A) (B) (A) (B) (A) (B) (A) (A) (B) (A) (B)
                 (A) (B) (B) (A) (A) (B) (B) (A) (A) (B) (B) (B)
                 (A) (A) (B) (A) (B) (B) (A) (B) (A) (A) (B) (A)
                 (B) (A) (B) (A) (B) (A) (B)
 The electronic state is 1-A.
 Alpha  occ. eigenvalues --  -25.30448 -25.30448 -19.89692 -19.89642  -1.52385
 Alpha  occ. eigenvalues --   -1.36970  -1.31268  -1.00226  -0.73920  -0.71584
 Alpha  occ. eigenvalues --   -0.70640  -0.56914  -0.56519  -0.54837  -0.53582
 Alpha  occ. eigenvalues --   -0.47761  -0.47167
 Alpha virt. eigenvalues --   -0.09185  -0.09003   0.02804   0.03453   0.04207
 Alpha virt. eigenvalues --    0.04279   0.08493   0.08746   0.08890   0.09410
 Alpha virt. eigenvalues --    0.09469   0.13604   0.13787   0.14154   0.16652
 Alpha virt. eigenvalues --    0.17555   0.23121   0.24799   0.25424   0.34309
 Alpha virt. eigenvalues --    0.35087   0.35849   0.39536   0.39592   0.41061
 Alpha virt. eigenvalues --    0.41068   0.42643   0.43065   0.47404   0.48507
 Alpha virt. eigenvalues --    0.49969   0.51773   0.52749   0.52858   0.54658
 Alpha virt. eigenvalues --    0.55029   0.55680   0.55708   0.57983   0.63427
 Alpha virt. eigenvalues --    0.65964   0.67069   0.67098   0.70925   0.72232
 Alpha virt. eigenvalues --    0.72943   0.77404   0.79483   0.84172   0.90273
 Alpha virt. eigenvalues --    0.90620   0.92488   1.10050   1.12492   1.18325
 Alpha virt. eigenvalues --    1.20498   1.29091   1.33944   1.41566   1.43272
 Alpha virt. eigenvalues --    1.44117   1.45692   1.49075   1.50914   1.52255
 Alpha virt. eigenvalues --    1.66817   1.68074   1.70614   1.71274   1.74139
 Alpha virt. eigenvalues --    1.76284   1.77978   1.80183   1.82709   1.84030
 Alpha virt. eigenvalues --    1.90981   1.91779   1.94425   2.01218   2.02857
 Alpha virt. eigenvalues --    2.10810   2.10903   2.13235   2.19733   2.26974
 Alpha virt. eigenvalues --    2.53582   2.56482   2.86957   2.97929   3.13383
 Alpha virt. eigenvalues --    3.18914   3.19074   3.26824   3.26874   3.38195
 Alpha virt. eigenvalues --    3.43843   3.57543   3.67096   3.68930   3.74607
 Alpha virt. eigenvalues --    3.84440   3.91048   3.94594   4.00980   4.04693
 Alpha virt. eigenvalues --    4.05353   4.11794   4.14537   4.14902   4.17142
 Alpha virt. eigenvalues --    4.18757   4.21576   4.24587   4.29237   4.34672
 Alpha virt. eigenvalues --    4.40059   4.40504   4.43648   4.51975   4.56195
 Alpha virt. eigenvalues --    4.63691   4.68239   4.71441   4.84310   4.87947
 Alpha virt. eigenvalues --    4.89673   5.01622   5.02070   5.17924   5.18702
 Alpha virt. eigenvalues --    5.26124   5.28243   5.30279   5.32086   5.38365
 Alpha virt. eigenvalues --    5.42163   5.50422   5.52346   5.53860   5.59912
 Alpha virt. eigenvalues --    5.61316   5.68193   6.35579   6.37561   6.45019
 Alpha virt. eigenvalues --    6.46040   6.51580   6.55591   6.90070   6.99087
 Alpha virt. eigenvalues --    7.65821   8.01840   8.16879   8.36820   8.42974
 Alpha virt. eigenvalues --    8.43127   8.45188   8.67255   8.73379   8.81644
 Alpha virt. eigenvalues --    8.87442   8.90873   9.17299   9.21921  10.01766
 Alpha virt. eigenvalues --   10.02591  10.32716  10.43566  10.43841  10.69136
 Alpha virt. eigenvalues --   10.76283  10.83564  10.83574  10.99235  11.02369
 Alpha virt. eigenvalues --   11.06098  11.09770  11.13192  11.20490  11.27802
 Alpha virt. eigenvalues --   11.27897  11.29353  11.29812  11.30956  11.32163
 Alpha virt. eigenvalues --   11.32252  11.32272  11.32283  11.33191  11.38250
 Alpha virt. eigenvalues --   11.42070  11.47554  11.47915  11.50943  11.54342
 Alpha virt. eigenvalues --   11.68177  11.77717  11.78242  11.79365  11.80110
 Alpha virt. eigenvalues --   11.86298  11.88081  11.97040  11.99565  12.07443
 Alpha virt. eigenvalues --   12.16450  12.28111  12.46611  13.49276  13.49868
 Alpha virt. eigenvalues --   13.68464  14.01906  14.40819  14.41098  14.41816
 Alpha virt. eigenvalues --   14.42848  14.46854  14.48517  14.49496  14.51017
 Alpha virt. eigenvalues --   14.85097  14.85513  14.89897  14.92466  14.98598
 Alpha virt. eigenvalues --   15.06665  15.20420  15.82511  15.82883  15.84302
 Alpha virt. eigenvalues --   15.84534  15.93469  15.93792  15.95629  15.97785
 Alpha virt. eigenvalues --   15.99611  16.05375  16.39459  16.41245  47.55957
 Alpha virt. eigenvalues --   48.00513  54.40980  54.55712 250.55464 251.04573
 Alpha virt. eigenvalues --  283.28825 283.47746
          Condensed to atoms (all electrons):
               1          2          3          4
     1  F    9.162620   0.011381  -0.007484  -0.003868
     2  O    0.011381   7.774302   0.059153  -0.007484
     3  O   -0.007484   0.059153   7.774302   0.011381
     4  F   -0.003868  -0.007484   0.011381   9.162620
 Mulliken charges:
               1
     1  F   -0.162649
     2  O    0.162649
     3  O    0.162649
     4  F   -0.162649
 Sum of Mulliken charges =  -0.00000
 Mulliken charges with hydrogens summed into heavy atoms:
               1
     1  F   -0.162649
     2  O    0.162649
     3  O    0.162649
     4  F   -0.162649
 Electronic spatial extent (au):  <R**2>=            243.9954
 Charge=              0.0000 electrons
 Dipole moment (field-independent basis, Debye):
    X=              0.0000    Y=              0.0000    Z=              1.2860  Tot=              1.2860
 Quadrupole moment (field-independent basis, Debye-Ang):
   XX=            -20.0992   YY=            -22.0033   ZZ=            -19.5781
   XY=             -0.8050   XZ=              0.0000   YZ=              0.0000
 Traceless Quadrupole moment (field-independent basis, Debye-Ang):
   XX=              0.4610   YY=             -1.4431   ZZ=              0.9821
   XY=             -0.8050   XZ=              0.0000   YZ=              0.0000
 Octapole moment (field-independent basis, Debye-Ang**2):
  XXX=              0.0000  YYY=              0.0000  ZZZ=             -1.3963  XYY=             -0.0000
  XXY=              0.0000  XXZ=             -0.0270  XZZ=              0.0000  YZZ=              0.0000
  YYZ=             -0.2605  XYZ=              0.2762
 Hexadecapole moment (field-independent basis, Debye-Ang**3):
 XXXX=            -49.8027 YYYY=           -134.2654 ZZZZ=            -45.2135 XXXY=            -27.4154
 XXXZ=              0.0000 YYYX=            -28.6445 YYYZ=             -0.0000 ZZZX=              0.0000
 ZZZY=             -0.0000 XXYY=            -31.1671 XXZZ=            -15.9797 YYZZ=            -28.2575
 XXYZ=             -0.0000 YYXZ=              0.0000 ZZXY=             -9.1545
 N-N= 1.253879884211D+02 E-N=-1.082278777921D+03  KE= 3.486674009204D+02
 PrsmSu:  requested number of processors reduced to:  21 ShMem   1 Linda.
 No NMR shielding tensors so no spin-rotation constants.
 Leave Link  601 at Sat Apr 17 13:02:03 2021, MaxMem=   104857600 cpu:             161.6 elap:               3.6
 (Enter /s/ls4/users/knvvv/bin/g16sse/l801.exe)
 DoSCS=F DFT=T ScalE2(SS,OS)=  1.000000  1.000000
 Range of M.O.s used for correlation:     1   264
 NBasis=   264 NAE=    17 NBE=    17 NFC=     0 NFV=     0
 NROrb=    264 NOA=    17 NOB=    17 NVA=   247 NVB=   247

 **** Warning!!: The largest alpha MO coefficient is  0.23270325D+02

 Leave Link  801 at Sat Apr 17 13:02:03 2021, MaxMem=   104857600 cpu:               3.9 elap:               0.1
 (Enter /s/ls4/users/knvvv/bin/g16sse/l914.exe)
 RHF ground state
 Doing stability rather than CIS.
 Two-electron integrals replicated using symmetry.
 MDV=   104857600 DFT=T DoStab=T Mixed=T DoRPA=F DoScal=F NonHer=F
 Making orbital integer symmetry assigments:
 Orbital symmetries:
       Occupied  (B) (A) (A) (B) (A) (B) (A) (B) (A) (B) (A) (A)
                 (B) (B) (A) (B) (A)
       Virtual   (B) (A) (A) (B) (A) (B) (B) (A) (A) (A) (B) (A)
                 (B) (B) (A) (B) (B) (A) (B) (B) (A) (A) (B) (A)
                 (A) (B) (B) (A) (B) (A) (B) (A) (B) (A) (A) (B)
                 (A) (B) (B) (A) (B) (B) (A) (A) (B) (A) (B) (A)
                 (B) (A) (B) (A) (B) (A) (A) (B) (B) (B) (A) (B)
                 (A) (B) (A) (B) (A) (B) (A) (A) (B) (B) (A) (A)
                 (B) (A) (B) (A) (B) (A) (B) (A) (A) (B) (B) (B)
                 (A) (B) (A) (A) (B) (A) (B) (A) (B) (A) (A) (B)
                 (A) (B) (B) (A) (A) (B) (A) (B) (B) (A) (B) (B)
                 (A) (A) (B) (A) (B) (A) (A) (B) (B) (A) (B) (B)
                 (A) (B) (A) (A) (B) (B) (A) (B) (A) (A) (B) (A)
                 (B) (A) (B) (A) (B) (B) (A) (B) (A) (A) (A) (B)
                 (A) (B) (B) (A) (B) (A) (B) (A) (B) (A) (A) (B)
                 (B) (A) (B) (A) (A) (B) (B) (A) (A) (B) (B) (A)
                 (B) (A) (B) (B) (A) (B) (A) (B) (A) (B) (A) (B)
                 (A) (B) (A) (B) (A) (B) (A) (B) (A) (B) (A) (B)
                 (A) (B) (A) (A) (A) (B) (B) (B) (A) (A) (B) (A)
                 (B) (A) (B) (A) (B) (A) (B) (A) (A) (B) (A) (B)
                 (A) (B) (B) (A) (A) (B) (B) (A) (A) (B) (B) (B)
                 (A) (A) (B) (A) (B) (B) (A) (B) (A) (A) (B) (A)
                 (B) (A) (B) (A) (B) (A) (B)
    24 initial guesses have been made.
 Convergence on wavefunction:    0.001000000000000
 Davidson Disk Diagonalization:  ConvIn= 1.00D-03 SkipCon=T Conv= 1.00D-03.
 Max sub-space:  2000 roots to seek:    24 dimension of matrix:         8398
 Iteration     1 Dimension    24 NMult     0 NNew     24
 Estimated number of processors is:   18
 CISAX will form     1 AO SS matrices at one time.
 NMat=     1 NSing=     1 JSym2X= 2.
 FoFJK:  IHMeth= 1 ICntrl=       0 DoSepK=F KAlg= 0 I1Cent=           0 FoldK=F
 IRaf= 960000000 NMat=       1 IRICut=       1 DoRegI=T DoRafI=F ISym2E= 2 IDoP0=0 IntGTp=1.
 FoFCou: FMM=F IPFlag=           0 FMFlag=      100000 FMFlg1=           0
         NFxFlg=           0 DoJE=F BraDBF=F KetDBF=F FulRan=T
         wScrn=  0.000000 ICntrl=         0 IOpCl=  0 I1Cent=           0 NGrid=           0
         NMat0=    1 NMatS0=      1 NMatT0=    0 NMatD0=    1 NMtDS0=    0 NMtDT0=    0
 Integrals replicated using symmetry in FoFCou.
 CoulSu:  requested number of processors reduced to:  20 ShMem   1 Linda.
 NMat=     1 NSing=     1 JSym2X= 2.
 CoulSu:  requested number of processors reduced to:  20 ShMem   1 Linda.
 NMat=     1 NSing=     1 JSym2X= 2.
 CoulSu:  requested number of processors reduced to:  20 ShMem   1 Linda.
 NMat=     1 NSing=     1 JSym2X= 2.
 CoulSu:  requested number of processors reduced to:  20 ShMem   1 Linda.
 NMat=     1 NSing=     1 JSym2X= 2.
 CoulSu:  requested number of processors reduced to:  20 ShMem   1 Linda.
 NMat=     1 NSing=     1 JSym2X= 2.
 CoulSu:  requested number of processors reduced to:  20 ShMem   1 Linda.
 NMat=     1 NSing=     1 JSym2X= 2.
 CoulSu:  requested number of processors reduced to:  20 ShMem   1 Linda.
 NMat=     1 NSing=     1 JSym2X= 2.
 CoulSu:  requested number of processors reduced to:  20 ShMem   1 Linda.
 NMat=     1 NSing=     1 JSym2X= 2.
 CoulSu:  requested number of processors reduced to:  20 ShMem   1 Linda.
 NMat=     1 NSing=     1 JSym2X= 2.
 CoulSu:  requested number of processors reduced to:  20 ShMem   1 Linda.
 NMat=     1 NSing=     1 JSym2X= 2.
 CoulSu:  requested number of processors reduced to:  20 ShMem   1 Linda.
 NMat=     1 NSing=     1 JSym2X= 2.
 CoulSu:  requested number of processors reduced to:  20 ShMem   1 Linda.
 NMat=     1 NSing=     0 JSym2X= 2.
 CoulSu:  requested number of processors reduced to:  20 ShMem   1 Linda.
 NMat=     1 NSing=     0 JSym2X= 2.
 CoulSu:  requested number of processors reduced to:  20 ShMem   1 Linda.
 NMat=     1 NSing=     0 JSym2X= 2.
 CoulSu:  requested number of processors reduced to:  20 ShMem   1 Linda.
 NMat=     1 NSing=     0 JSym2X= 2.
 CoulSu:  requested number of processors reduced to:  20 ShMem   1 Linda.
 NMat=     1 NSing=     0 JSym2X= 2.
 CoulSu:  requested number of processors reduced to:  20 ShMem   1 Linda.
 NMat=     1 NSing=     0 JSym2X= 2.
 CoulSu:  requested number of processors reduced to:  20 ShMem   1 Linda.
 NMat=     1 NSing=     0 JSym2X= 2.
 CoulSu:  requested number of processors reduced to:  20 ShMem   1 Linda.
 NMat=     1 NSing=     0 JSym2X= 2.
 CoulSu:  requested number of processors reduced to:  20 ShMem   1 Linda.
 NMat=     1 NSing=     0 JSym2X= 2.
 CoulSu:  requested number of processors reduced to:  20 ShMem   1 Linda.
 NMat=     1 NSing=     0 JSym2X= 2.
 CoulSu:  requested number of processors reduced to:  20 ShMem   1 Linda.
 NMat=     1 NSing=     0 JSym2X= 2.
 CoulSu:  requested number of processors reduced to:  20 ShMem   1 Linda.
 NMat=     1 NSing=     0 JSym2X= 2.
 CoulSu:  requested number of processors reduced to:  20 ShMem   1 Linda.
 New state      1 was old state      4
 Excitation Energies [eV] at current iteration:
 Root      1 :     2.596995842397725
 Root      2 :     2.738930038637696
 Root      3 :     3.393534682860144
 Root      4 :     3.824792764004020
 Root      5 :     4.703233274591736
 Root      6 :     4.752436683426308
 Root      7 :     5.232946005819207
 Root      8 :     5.486096085855526
 Root      9 :     6.067972157715006
 Root     10 :     6.585930982832519
 Root     11 :     6.886172909355737
 Root     12 :     6.954981242151352
 Root     13 :     7.401636803806809
 Root     14 :     8.043218689069898
 Root     15 :     8.330696666799932
 Root     16 :     8.806991764836910
 Root     17 :     8.830652254213240
 Root     18 :     8.885858384324480
 Root     19 :     8.960276732266498
 Root     20 :     8.971510612653882
 Root     21 :     9.004390617123999
 Root     22 :     9.945985909138349
 Root     23 :    15.373186106541530
 Root     24 :    20.311215346276970
 Iteration     2 Dimension    48 NMult    24 NNew     24
 Estimated number of processors is:   18
 CISAX will form     1 AO SS matrices at one time.
 NMat=     1 NSing=     1 JSym2X= 2.
 CoulSu:  requested number of processors reduced to:  20 ShMem   1 Linda.
 NMat=     1 NSing=     1 JSym2X= 2.
 CoulSu:  requested number of processors reduced to:  20 ShMem   1 Linda.
 NMat=     1 NSing=     1 JSym2X= 2.
 CoulSu:  requested number of processors reduced to:  20 ShMem   1 Linda.
 NMat=     1 NSing=     1 JSym2X= 2.
 CoulSu:  requested number of processors reduced to:  20 ShMem   1 Linda.
 NMat=     1 NSing=     1 JSym2X= 2.
 CoulSu:  requested number of processors reduced to:  20 ShMem   1 Linda.
 NMat=     1 NSing=     1 JSym2X= 2.
 CoulSu:  requested number of processors reduced to:  20 ShMem   1 Linda.
 NMat=     1 NSing=     1 JSym2X= 2.
 CoulSu:  requested number of processors reduced to:  20 ShMem   1 Linda.
 NMat=     1 NSing=     1 JSym2X= 2.
 CoulSu:  requested number of processors reduced to:  20 ShMem   1 Linda.
 NMat=     1 NSing=     1 JSym2X= 2.
 CoulSu:  requested number of processors reduced to:  20 ShMem   1 Linda.
 NMat=     1 NSing=     1 JSym2X= 2.
 CoulSu:  requested number of processors reduced to:  20 ShMem   1 Linda.
 NMat=     1 NSing=     1 JSym2X= 2.
 CoulSu:  requested number of processors reduced to:  20 ShMem   1 Linda.
 NMat=     1 NSing=     1 JSym2X= 2.
 CoulSu:  requested number of processors reduced to:  20 ShMem   1 Linda.
 NMat=     1 NSing=     0 JSym2X= 2.
 CoulSu:  requested number of processors reduced to:  20 ShMem   1 Linda.
 NMat=     1 NSing=     0 JSym2X= 2.
 CoulSu:  requested number of processors reduced to:  20 ShMem   1 Linda.
 NMat=     1 NSing=     0 JSym2X= 2.
 CoulSu:  requested number of processors reduced to:  20 ShMem   1 Linda.
 NMat=     1 NSing=     0 JSym2X= 2.
 CoulSu:  requested number of processors reduced to:  20 ShMem   1 Linda.
 NMat=     1 NSing=     0 JSym2X= 2.
 CoulSu:  requested number of processors reduced to:  20 ShMem   1 Linda.
 NMat=     1 NSing=     0 JSym2X= 2.
 CoulSu:  requested number of processors reduced to:  20 ShMem   1 Linda.
 NMat=     1 NSing=     0 JSym2X= 2.
 CoulSu:  requested number of processors reduced to:  20 ShMem   1 Linda.
 NMat=     1 NSing=     0 JSym2X= 2.
 CoulSu:  requested number of processors reduced to:  20 ShMem   1 Linda.
 NMat=     1 NSing=     0 JSym2X= 2.
 CoulSu:  requested number of processors reduced to:  20 ShMem   1 Linda.
 NMat=     1 NSing=     0 JSym2X= 2.
 CoulSu:  requested number of processors reduced to:  20 ShMem   1 Linda.
 NMat=     1 NSing=     0 JSym2X= 2.
 CoulSu:  requested number of processors reduced to:  20 ShMem   1 Linda.
 NMat=     1 NSing=     0 JSym2X= 2.
 CoulSu:  requested number of processors reduced to:  20 ShMem   1 Linda.
 Root      1 not converged, maximum delta is    0.111875823026808
 Excitation Energies [eV] at current iteration:
 Root      1 :     1.494135329095686   Change is   -1.102860513302039
 Root      2 :     1.867075180493662   Change is   -0.871854858144034
 Root      3 :     2.721508291993455   Change is   -0.672026390866689
 Root      4 :     3.367521429830727   Change is   -0.457271334173293
 Root      5 :     4.160763126698127   Change is   -0.542470147893609
 Root      6 :     4.223079032194613   Change is   -0.529357651231694
 Root      7 :     4.788806913455782   Change is   -0.444139092363426
 Root      8 :     5.137969435385073   Change is   -0.348126650470453
 Root      9 :     5.443323827837430   Change is   -0.624648329877576
 Root     10 :     5.887180746896329   Change is   -0.998992162459409
 Root     11 :     6.205440641347629   Change is   -0.380490341484890
 Root     12 :     6.305167901136608   Change is   -0.649813341014745
 Root     13 :     7.050479096928226   Change is   -0.351157706878583
 Root     14 :     7.563581808520067   Change is   -1.407928804133815
 Root     15 :     7.571276744924931   Change is   -0.759419921875002
 Root     16 :     7.629129001194904   Change is   -0.414089687874993
 Root     17 :     8.024082534302037   Change is   -0.936194197964460
 Root     18 :     8.408621642943064   Change is   -0.477236741381417
 Root     19 :     8.443943778827947   Change is   -0.363047986008963
 Root     20 :     8.585611190338456   Change is   -0.245041063874784
 Root     21 :     8.902738077000864   Change is   -0.101652540123135
 Root     22 :     9.352775048463549   Change is   -0.593210860674800
 Root     23 :    10.143683826947090   Change is   -5.229502279594439
 Root     24 :    11.083239683416720   Change is   -9.227975662860251
 Iteration     3 Dimension    54 NMult    48 NNew      6
 Estimated number of processors is:   18
 CISAX will form     1 AO SS matrices at one time.
 NMat=     1 NSing=     1 JSym2X= 2.
 CoulSu:  requested number of processors reduced to:  20 ShMem   1 Linda.
 NMat=     1 NSing=     1 JSym2X= 2.
 CoulSu:  requested number of processors reduced to:  20 ShMem   1 Linda.
 NMat=     1 NSing=     1 JSym2X= 2.
 CoulSu:  requested number of processors reduced to:  20 ShMem   1 Linda.
 NMat=     1 NSing=     0 JSym2X= 2.
 CoulSu:  requested number of processors reduced to:  20 ShMem   1 Linda.
 NMat=     1 NSing=     0 JSym2X= 2.
 CoulSu:  requested number of processors reduced to:  20 ShMem   1 Linda.
 NMat=     1 NSing=     0 JSym2X= 2.
 CoulSu:  requested number of processors reduced to:  20 ShMem   1 Linda.
 Root      1 not converged, maximum delta is    0.014085110476363
 Excitation Energies [eV] at current iteration:
 Root      1 :     1.460630713463603   Change is   -0.033504615632083
 Root      2 :     1.831222320014587   Change is   -0.035852860479076
 Root      3 :     2.711104645348265   Change is   -0.010403646645190
 Root      4 :     4.745121486052865   Change is   -0.043685427402917
 Root      5 :     5.114271886048367   Change is   -0.023697549336706
 Root      6 :     6.176552451899534   Change is   -0.028888189448095
 Iteration     4 Dimension    60 NMult    54 NNew      6
 Estimated number of processors is:   18
 CISAX will form     1 AO SS matrices at one time.
 NMat=     1 NSing=     1 JSym2X= 2.
 CoulSu:  requested number of processors reduced to:  20 ShMem   1 Linda.
 NMat=     1 NSing=     1 JSym2X= 2.
 CoulSu:  requested number of processors reduced to:  20 ShMem   1 Linda.
 NMat=     1 NSing=     1 JSym2X= 2.
 CoulSu:  requested number of processors reduced to:  20 ShMem   1 Linda.
 NMat=     1 NSing=     0 JSym2X= 2.
 CoulSu:  requested number of processors reduced to:  20 ShMem   1 Linda.
 NMat=     1 NSing=     0 JSym2X= 2.
 CoulSu:  requested number of processors reduced to:  20 ShMem   1 Linda.
 NMat=     1 NSing=     0 JSym2X= 2.
 CoulSu:  requested number of processors reduced to:  20 ShMem   1 Linda.
 Root      1 not converged, maximum delta is    0.002413075453904
 Excitation Energies [eV] at current iteration:
 Root      1 :     1.459671975690904   Change is   -0.000958737772699
 Root      2 :     1.829597644589428   Change is   -0.001624675425158
 Root      3 :     2.710824170541355   Change is   -0.000280474806910
 Root      4 :     4.741292556698835   Change is   -0.003828929354030
 Root      5 :     5.112297008239738   Change is   -0.001974877808629
 Root      6 :     6.172118590163747   Change is   -0.004433861735787
 Iteration     5 Dimension    66 NMult    60 NNew      6
 Estimated number of processors is:   18
 CISAX will form     1 AO SS matrices at one time.
 NMat=     1 NSing=     1 JSym2X= 2.
 CoulSu:  requested number of processors reduced to:  20 ShMem   1 Linda.
 NMat=     1 NSing=     1 JSym2X= 2.
 CoulSu:  requested number of processors reduced to:  20 ShMem   1 Linda.
 NMat=     1 NSing=     1 JSym2X= 2.
 CoulSu:  requested number of processors reduced to:  20 ShMem   1 Linda.
 NMat=     1 NSing=     0 JSym2X= 2.
 CoulSu:  requested number of processors reduced to:  20 ShMem   1 Linda.
 NMat=     1 NSing=     0 JSym2X= 2.
 CoulSu:  requested number of processors reduced to:  20 ShMem   1 Linda.
 NMat=     1 NSing=     0 JSym2X= 2.
 CoulSu:  requested number of processors reduced to:  20 ShMem   1 Linda.
 Root      1 has converged.
 Excitation Energies [eV] at current iteration:
 Root      1 :     1.459641141704488   Change is   -0.000030833986416
 Root      2 :     1.829539436275468   Change is   -0.000058208313960
 Root      3 :     2.710807727330897   Change is   -0.000016443210458
 Root      4 :     4.741117271306660   Change is   -0.000175285392175
 Root      5 :     5.112221693918880   Change is   -0.000075314320859
 Root      6 :     6.171936612593734   Change is   -0.000181977570013
 Convergence achieved on expansion vectors.
 ***********************************************************************
 Stability analysis using <AA,BB:AA,BB> singles matrix:
 ***********************************************************************
 1PDM for each excited state written to RWF  633
 Ground to excited state transition densities written to RWF  633

 Eigenvectors of the stability matrix:
 
 Eigenvector   1:      Triplet-A    Eigenvalue= 0.0536408  <S**2>=2.000
       9 -> 19        -0.12476
      10 -> 18         0.11609
      12 -> 19        -0.18137
      13 -> 18        -0.22411
      16 -> 18         0.39729
      17 -> 19         0.44238
 The wavefunction is stable under the perturbations considered.
 Leave Link  914 at Sat Apr 17 13:07:34 2021, MaxMem=   104857600 cpu:           13234.6 elap:             331.7
 (Enter /s/ls4/users/knvvv/bin/g16sse/l508.exe)
 The wavefunction is already stable.
 Leave Link  508 at Sat Apr 17 13:07:34 2021, MaxMem=   104857600 cpu:               2.2 elap:               0.1
 (Enter /s/ls4/users/knvvv/bin/g16sse/l601.exe)
 Copying SCF densities to generalized density rwf, IOpCl= 0 IROHF=0.

 **********************************************************************

            Population analysis using the SCF density.

 **********************************************************************

 Orbital symmetries:
       Occupied  (B) (A) (A) (B) (A) (B) (A) (B) (A) (B) (A) (A)
                 (B) (B) (A) (B) (A)
       Virtual   (B) (A) (A) (B) (A) (B) (B) (A) (A) (A) (B) (A)
                 (B) (B) (A) (B) (B) (A) (B) (B) (A) (A) (B) (A)
                 (A) (B) (B) (A) (B) (A) (B) (A) (B) (A) (A) (B)
                 (A) (B) (B) (A) (B) (B) (A) (A) (B) (A) (B) (A)
                 (B) (A) (B) (A) (B) (A) (A) (B) (B) (B) (A) (B)
                 (A) (B) (A) (B) (A) (B) (A) (A) (B) (B) (A) (A)
                 (B) (A) (B) (A) (B) (A) (B) (A) (A) (B) (B) (B)
                 (A) (B) (A) (A) (B) (A) (B) (A) (B) (A) (A) (B)
                 (A) (B) (B) (A) (A) (B) (A) (B) (B) (A) (B) (B)
                 (A) (A) (B) (A) (B) (A) (A) (B) (B) (A) (B) (B)
                 (A) (B) (A) (A) (B) (B) (A) (B) (A) (A) (B) (A)
                 (B) (A) (B) (A) (B) (B) (A) (B) (A) (A) (A) (B)
                 (A) (B) (B) (A) (B) (A) (B) (A) (B) (A) (A) (B)
                 (B) (A) (B) (A) (A) (B) (B) (A) (A) (B) (B) (A)
                 (B) (A) (B) (B) (A) (B) (A) (B) (A) (B) (A) (B)
                 (A) (B) (A) (B) (A) (B) (A) (B) (A) (B) (A) (B)
                 (A) (B) (A) (A) (A) (B) (B) (B) (A) (A) (B) (A)
                 (B) (A) (B) (A) (B) (A) (B) (A) (A) (B) (A) (B)
                 (A) (B) (B) (A) (A) (B) (B) (A) (A) (B) (B) (B)
                 (A) (A) (B) (A) (B) (B) (A) (B) (A) (A) (B) (A)
                 (B) (A) (B) (A) (B) (A) (B)
 The electronic state is 1-A.
 Alpha  occ. eigenvalues --  -25.30448 -25.30448 -19.89692 -19.89642  -1.52385
 Alpha  occ. eigenvalues --   -1.36970  -1.31268  -1.00226  -0.73920  -0.71584
 Alpha  occ. eigenvalues --   -0.70640  -0.56914  -0.56519  -0.54837  -0.53582
 Alpha  occ. eigenvalues --   -0.47761  -0.47167
 Alpha virt. eigenvalues --   -0.09185  -0.09003   0.02804   0.03453   0.04207
 Alpha virt. eigenvalues --    0.04279   0.08493   0.08746   0.08890   0.09410
 Alpha virt. eigenvalues --    0.09469   0.13604   0.13787   0.14154   0.16652
 Alpha virt. eigenvalues --    0.17555   0.23121   0.24799   0.25424   0.34309
 Alpha virt. eigenvalues --    0.35087   0.35849   0.39536   0.39592   0.41061
 Alpha virt. eigenvalues --    0.41068   0.42643   0.43065   0.47404   0.48507
 Alpha virt. eigenvalues --    0.49969   0.51773   0.52749   0.52858   0.54658
 Alpha virt. eigenvalues --    0.55029   0.55680   0.55708   0.57983   0.63427
 Alpha virt. eigenvalues --    0.65964   0.67069   0.67098   0.70925   0.72232
 Alpha virt. eigenvalues --    0.72943   0.77404   0.79483   0.84172   0.90273
 Alpha virt. eigenvalues --    0.90620   0.92488   1.10050   1.12492   1.18325
 Alpha virt. eigenvalues --    1.20498   1.29091   1.33944   1.41566   1.43272
 Alpha virt. eigenvalues --    1.44117   1.45692   1.49075   1.50914   1.52255
 Alpha virt. eigenvalues --    1.66817   1.68074   1.70614   1.71274   1.74139
 Alpha virt. eigenvalues --    1.76284   1.77978   1.80183   1.82709   1.84030
 Alpha virt. eigenvalues --    1.90981   1.91779   1.94425   2.01218   2.02857
 Alpha virt. eigenvalues --    2.10810   2.10903   2.13235   2.19733   2.26974
 Alpha virt. eigenvalues --    2.53582   2.56482   2.86957   2.97929   3.13383
 Alpha virt. eigenvalues --    3.18914   3.19074   3.26824   3.26874   3.38195
 Alpha virt. eigenvalues --    3.43843   3.57543   3.67096   3.68930   3.74607
 Alpha virt. eigenvalues --    3.84440   3.91048   3.94594   4.00980   4.04693
 Alpha virt. eigenvalues --    4.05353   4.11794   4.14537   4.14902   4.17142
 Alpha virt. eigenvalues --    4.18757   4.21576   4.24587   4.29237   4.34672
 Alpha virt. eigenvalues --    4.40059   4.40504   4.43648   4.51975   4.56195
 Alpha virt. eigenvalues --    4.63691   4.68239   4.71441   4.84310   4.87947
 Alpha virt. eigenvalues --    4.89673   5.01622   5.02070   5.17924   5.18702
 Alpha virt. eigenvalues --    5.26124   5.28243   5.30279   5.32086   5.38365
 Alpha virt. eigenvalues --    5.42163   5.50422   5.52346   5.53860   5.59912
 Alpha virt. eigenvalues --    5.61316   5.68193   6.35579   6.37561   6.45019
 Alpha virt. eigenvalues --    6.46040   6.51580   6.55591   6.90070   6.99087
 Alpha virt. eigenvalues --    7.65821   8.01840   8.16879   8.36820   8.42974
 Alpha virt. eigenvalues --    8.43127   8.45188   8.67255   8.73379   8.81644
 Alpha virt. eigenvalues --    8.87442   8.90873   9.17299   9.21921  10.01766
 Alpha virt. eigenvalues --   10.02591  10.32716  10.43566  10.43841  10.69136
 Alpha virt. eigenvalues --   10.76283  10.83564  10.83574  10.99235  11.02369
 Alpha virt. eigenvalues --   11.06098  11.09770  11.13192  11.20490  11.27802
 Alpha virt. eigenvalues --   11.27897  11.29353  11.29812  11.30956  11.32163
 Alpha virt. eigenvalues --   11.32252  11.32272  11.32283  11.33191  11.38250
 Alpha virt. eigenvalues --   11.42070  11.47554  11.47915  11.50943  11.54342
 Alpha virt. eigenvalues --   11.68177  11.77717  11.78242  11.79365  11.80110
 Alpha virt. eigenvalues --   11.86298  11.88081  11.97040  11.99565  12.07443
 Alpha virt. eigenvalues --   12.16450  12.28111  12.46611  13.49276  13.49868
 Alpha virt. eigenvalues --   13.68464  14.01906  14.40819  14.41098  14.41816
 Alpha virt. eigenvalues --   14.42848  14.46854  14.48517  14.49496  14.51017
 Alpha virt. eigenvalues --   14.85097  14.85513  14.89897  14.92466  14.98598
 Alpha virt. eigenvalues --   15.06665  15.20420  15.82511  15.82883  15.84302
 Alpha virt. eigenvalues --   15.84534  15.93469  15.93792  15.95629  15.97785
 Alpha virt. eigenvalues --   15.99611  16.05375  16.39459  16.41245  47.55957
 Alpha virt. eigenvalues --   48.00513  54.40980  54.55712 250.55464 251.04573
 Alpha virt. eigenvalues --  283.28825 283.47746
          Condensed to atoms (all electrons):
               1          2          3          4
     1  F    9.162620   0.011381  -0.007484  -0.003868
     2  O    0.011381   7.774302   0.059153  -0.007484
     3  O   -0.007484   0.059153   7.774302   0.011381
     4  F   -0.003868  -0.007484   0.011381   9.162620
 Mulliken charges:
               1
     1  F   -0.162649
     2  O    0.162649
     3  O    0.162649
     4  F   -0.162649
 Sum of Mulliken charges =  -0.00000
 Mulliken charges with hydrogens summed into heavy atoms:
               1
     1  F   -0.162649
     2  O    0.162649
     3  O    0.162649
     4  F   -0.162649
 Electronic spatial extent (au):  <R**2>=            243.9954
 Charge=              0.0000 electrons
 Dipole moment (field-independent basis, Debye):
    X=              0.0000    Y=              0.0000    Z=              1.2860  Tot=              1.2860
 Quadrupole moment (field-independent basis, Debye-Ang):
   XX=            -20.0992   YY=            -22.0033   ZZ=            -19.5781
   XY=             -0.8050   XZ=              0.0000   YZ=              0.0000
 Traceless Quadrupole moment (field-independent basis, Debye-Ang):
   XX=              0.4610   YY=             -1.4431   ZZ=              0.9821
   XY=             -0.8050   XZ=              0.0000   YZ=              0.0000
 Octapole moment (field-independent basis, Debye-Ang**2):
  XXX=              0.0000  YYY=              0.0000  ZZZ=             -1.3963  XYY=             -0.0000
  XXY=              0.0000  XXZ=             -0.0270  XZZ=              0.0000  YZZ=              0.0000
  YYZ=             -0.2605  XYZ=              0.2762
 Hexadecapole moment (field-independent basis, Debye-Ang**3):
 XXXX=            -49.8027 YYYY=           -134.2654 ZZZZ=            -45.2135 XXXY=            -27.4154
 XXXZ=              0.0000 YYYX=            -28.6445 YYYZ=             -0.0000 ZZZX=              0.0000
 ZZZY=             -0.0000 XXYY=            -31.1671 XXZZ=            -15.9797 YYZZ=            -28.2575
 XXYZ=             -0.0000 YYXZ=              0.0000 ZZXY=             -9.1545
 N-N= 1.253879884211D+02 E-N=-1.082278777921D+03  KE= 3.486674009204D+02
 PrsmSu:  requested number of processors reduced to:  21 ShMem   1 Linda.
 No NMR shielding tensors so no spin-rotation constants.
 Leave Link  601 at Sat Apr 17 13:07:38 2021, MaxMem=   104857600 cpu:             154.2 elap:               3.4
 (Enter /s/ls4/users/knvvv/bin/g16sse/l9999.exe)

 Test job not archived.
 1\1\GINC-N156\Stability\RM062X\Gen\F2O2\KNVVV\17-Apr-2021\0\\#P M062X/
 GEN Integral=UltraFineGrid SCF=NoSymm Stable=(RExt, Opt) IOp(1/33=1)\\
 Database calculations.\\0,1\F,0,0.,0.,0.\O,0,0.,0.,1.53229741\O,0,1.17
 05852438,0.,1.9230280762\F,0,1.6506598353,1.4521083819,2.0170758648\\V
 ersion=ES64L-G16RevA.03\State=1-A\HF=-349.8444399\RMSD=9.918e-09\Dipol
 e=-0.1156917,-0.3499393,0.3465995\Quadrupole=0.0531288,0.1735613,-0.22
 66901,-0.4659248,-0.6964033,-0.7174897\PG=C02 [X(F2O2)]\\@


 A DANDELION FROM A LOVER MEANS MORE THAN AN ORCHID FROM A FRIEND.
 Job cpu time:       0 days  4 hours 13 minutes 40.2 seconds.
 Elapsed time:       0 days  0 hours  6 minutes 21.0 seconds.
 File lengths (MBytes):  RWF=    226 Int=      0 D2E=      0 Chk=     10 Scr=      1
 Normal termination of Gaussian 16 at Sat Apr 17 13:07:38 2021.
