 Entering Gaussian System, Link 0=/s/ls4/users/knvvv/bin/g16sse/g16
 Input=data/database/M062X--def2-QZVP--PA26_si2h6p.gjf
 Output=data/database/M062X--def2-QZVP--PA26_si2h6p.log
 Initial command:
 /s/ls4/users/knvvv/bin/g16sse/l1.exe "/s/ls4/users/knvvv/bin/scratch/Gau-2740.inp" -scrdir="/s/ls4/users/knvvv/bin/scratch/"
 Entering Link 1 = /s/ls4/users/knvvv/bin/g16sse/l1.exe PID=      2741.
  
 Copyright (c) 1988,1990,1992,1993,1995,1998,2003,2009,2016,
            Gaussian, Inc.  All Rights Reserved.
  
 This is part of the Gaussian(R) 16 program.  It is based on
 the Gaussian(R) 09 system (copyright 2009, Gaussian, Inc.),
 the Gaussian(R) 03 system (copyright 2003, Gaussian, Inc.),
 the Gaussian(R) 98 system (copyright 1998, Gaussian, Inc.),
 the Gaussian(R) 94 system (copyright 1995, Gaussian, Inc.),
 the Gaussian 92(TM) system (copyright 1992, Gaussian, Inc.),
 the Gaussian 90(TM) system (copyright 1990, Gaussian, Inc.),
 the Gaussian 88(TM) system (copyright 1988, Gaussian, Inc.),
 the Gaussian 86(TM) system (copyright 1986, Carnegie Mellon
 University), and the Gaussian 82(TM) system (copyright 1983,
 Carnegie Mellon University). Gaussian is a federally registered
 trademark of Gaussian, Inc.
  
 This software contains proprietary and confidential information,
 including trade secrets, belonging to Gaussian, Inc.
  
 This software is provided under written license and may be
 used, copied, transmitted, or stored only in accord with that
 written license.
  
 The following legend is applicable only to US Government
 contracts under FAR:
  
                    RESTRICTED RIGHTS LEGEND
  
 Use, reproduction and disclosure by the US Government is
 subject to restrictions as set forth in subparagraphs (a)
 and (c) of the Commercial Computer Software - Restricted
 Rights clause in FAR 52.227-19.
  
 Gaussian, Inc.
 340 Quinnipiac St., Bldg. 40, Wallingford CT 06492
  
  
 ---------------------------------------------------------------
 Warning -- This program may not be used in any manner that
 competes with the business of Gaussian, Inc. or will provide
 assistance to any competitor of Gaussian, Inc.  The licensee
 of this program is prohibited from giving any competitor of
 Gaussian, Inc. access to this program.  By using this program,
 the user acknowledges that Gaussian, Inc. is engaged in the
 business of creating and licensing software in the field of
 computational chemistry and represents and warrants to the
 licensee that it is not a competitor of Gaussian, Inc. and that
 it will not use this program in any manner prohibited above.
 ---------------------------------------------------------------
  

 Cite this work as:
 Gaussian 16, Revision A.03,
 M. J. Frisch, G. W. Trucks, H. B. Schlegel, G. E. Scuseria, 
 M. A. Robb, J. R. Cheeseman, G. Scalmani, V. Barone, 
 G. A. Petersson, H. Nakatsuji, X. Li, M. Caricato, A. V. Marenich, 
 J. Bloino, B. G. Janesko, R. Gomperts, B. Mennucci, H. P. Hratchian, 
 J. V. Ortiz, A. F. Izmaylov, J. L. Sonnenberg, D. Williams-Young, 
 F. Ding, F. Lipparini, F. Egidi, J. Goings, B. Peng, A. Petrone, 
 T. Henderson, D. Ranasinghe, V. G. Zakrzewski, J. Gao, N. Rega, 
 G. Zheng, W. Liang, M. Hada, M. Ehara, K. Toyota, R. Fukuda, 
 J. Hasegawa, M. Ishida, T. Nakajima, Y. Honda, O. Kitao, H. Nakai, 
 T. Vreven, K. Throssell, J. A. Montgomery, Jr., J. E. Peralta, 
 F. Ogliaro, M. J. Bearpark, J. J. Heyd, E. N. Brothers, K. N. Kudin, 
 V. N. Staroverov, T. A. Keith, R. Kobayashi, J. Normand, 
 K. Raghavachari, A. P. Rendell, J. C. Burant, S. S. Iyengar, 
 J. Tomasi, M. Cossi, J. M. Millam, M. Klene, C. Adamo, R. Cammi, 
 J. W. Ochterski, R. L. Martin, K. Morokuma, O. Farkas, 
 J. B. Foresman, and D. J. Fox, Gaussian, Inc., Wallingford CT, 2016.
 
 ******************************************
 Gaussian 16:  ES64L-G16RevA.03 25-Dec-2016
                17-Apr-2021 
 ******************************************
 %RWF=temp7_56546,70GB
 %nprocshared=48
 Will use up to   48 processors via shared memory.
 Default route: MaxDisk=80GB
 ----------------------------------------------------------------------
 #P M062X/Def2QZVP Integral=UltraFineGrid SCF=NoSymm Stable=(RExt, Opt)
  IOp(1/33=1)
 ----------------------------------------------------------------------
 1/33=1,38=1,172=1/1;
 2/12=2,17=6,18=5,40=1/2;
 3/5=45,7=101,11=2,25=1,30=1,74=-55,75=-5/1,2,3;
 4/9=2/1;
 5/5=2,38=5/2;
 6/7=2,8=2,9=2,10=2,28=1/1;
 8/6=1,10=90,11=11/1;
 9/8=-3,42=1,46=1/14;
 5/5=2,8=3,17=40,38=5/8(-2);
 6/7=2,8=2,9=2,10=2,28=1/1;
 99/5=1,9=1/99;
 Leave Link    1 at Sat Apr 17 05:35:14 2021, MaxMem=           0 cpu:               8.4 elap:               0.2
 (Enter /s/ls4/users/knvvv/bin/g16sse/l101.exe)
 ONIOM data not found on unit 2.
 ----------------------
 Database calculations.
 ----------------------
 TstMul:  ICh=     1
 TstMul:  Mul=     1
 TstMul:  ICh=     1
 TstMul:  Mul=     1
 Symbolic Z-matrix:
 Charge =  1 Multiplicity = 1
 Si                   -0.0057    1.59116  -0.00044 
 Si                    0.0057   -1.59116  -0.00044 
 H                     1.42729   1.84563  -0.05758 
 H                    -0.67352   1.84341   1.26837 
 H                    -0.77203   1.83261  -1.21469 
 H                     0.67352  -1.84341   1.26837 
 H                     0.77203  -1.83261  -1.21469 
 H                    -1.42729  -1.84563  -0.05758 
 H                     0.        0.        0.00869 
 
 RdStrC is calling ZToCFu for IStruc=1 NZ=     9.
 PrtBox:  NBox=     1 Levels=  1 BoxLen=    8.00 SMaxX=        6.98
          Shift=            2.697194            3.487743            2.295437
 Box      1 Number                   0 centers from      1 to      9:
 After GenITR:
 ITRead=  0  0  0  0  0  0  0  0  0
 MicOpt= -1 -1 -1 -1 -1 -1 -1 -1 -1
 ITRead=  0  0  0  0  0  0  0  0  0
 MicOpt= -1 -1 -1 -1 -1 -1 -1 -1 -1
 NAtoms=      9 NQM=        9 NQMF=       0 NMMI=      0 NMMIF=      0
                NMic=       0 NMicF=      0.
                    Isotopes and Nuclear Properties:
 (Nuclear quadrupole moments (NQMom) in fm**2, nuclear magnetic moments (NMagM)
  in nuclear magnetons)

  Atom         1           2           3           4           5           6           7           8           9
 IAtWgt=          28          28           1           1           1           1           1           1           1
 AtmWgt=  27.9769284  27.9769284   1.0078250   1.0078250   1.0078250   1.0078250   1.0078250   1.0078250   1.0078250
 NucSpn=           0           0           1           1           1           1           1           1           1
 AtZEff=  -0.0000000  -0.0000000  -0.0000000  -0.0000000  -0.0000000  -0.0000000  -0.0000000  -0.0000000  -0.0000000
 NQMom=    0.0000000   0.0000000   0.0000000   0.0000000   0.0000000   0.0000000   0.0000000   0.0000000   0.0000000
 NMagM=    0.0000000   0.0000000   2.7928460   2.7928460   2.7928460   2.7928460   2.7928460   2.7928460   2.7928460
 AtZNuc=  14.0000000  14.0000000   1.0000000   1.0000000   1.0000000   1.0000000   1.0000000   1.0000000   1.0000000
 No MM parameters found.
 Leave Link  101 at Sat Apr 17 05:35:14 2021, MaxMem=   104857600 cpu:               7.1 elap:               0.2
 (Enter /s/ls4/users/knvvv/bin/g16sse/l202.exe)
                          Input orientation:                          
 ---------------------------------------------------------------------
 Center     Atomic      Atomic             Coordinates (Angstroms)
 Number     Number       Type             X           Y           Z
 ---------------------------------------------------------------------
      1         14           0       -0.005703    1.591161   -0.000442
      2         14           0        0.005703   -1.591161   -0.000442
      3          1           0        1.427294    1.845634   -0.057578
      4          1           0       -0.673523    1.843409    1.268368
      5          1           0       -0.772026    1.832609   -1.214693
      6          1           0        0.673523   -1.843409    1.268368
      7          1           0        0.772026   -1.832609   -1.214693
      8          1           0       -1.427294   -1.845634   -0.057578
      9          1           0        0.000000    0.000000    0.008687
 ---------------------------------------------------------------------
                    Distance matrix (angstroms):
                    1          2          3          4          5
     1  Si   0.000000
     2  Si   3.182342   0.000000
     3  H    1.456537   3.719643   0.000000
     4  H    1.455847   3.723909   2.484264   0.000000
     5  H    1.456006   3.715032   2.485174   2.485038   0.000000
     6  H    3.723909   1.455847   3.991910   3.925196   4.665652
     7  H    3.715032   1.456006   3.911235   4.665652   3.977174
     8  H    3.719643   1.456537   4.666276   3.991910   3.911235
     9  H    1.591197   1.591197   2.334079   2.332078   2.334767
                    6          7          8          9
     6  H    0.000000
     7  H    2.485038   0.000000
     8  H    2.484264   2.485174   0.000000
     9  H    2.332078   2.334767   2.334079   0.000000
 Stoichiometry    H7Si2(1+)
 Framework group  C2[C2(H),X(H6Si2)]
 Deg. of freedom    11
 Full point group                 C2      NOp   2
 Largest Abelian subgroup         C2      NOp   2
 Largest concise Abelian subgroup C2      NOp   2
                         Standard orientation:                         
 ---------------------------------------------------------------------
 Center     Atomic      Atomic             Coordinates (Angstroms)
 Number     Number       Type             X           Y           Z
 ---------------------------------------------------------------------
      1         14           0       -0.000000    1.591171   -0.000114
      2         14           0       -0.000000   -1.591171   -0.000114
      3          1           0        1.433900    1.840507   -0.057249
      4          1           0       -0.666912    1.845811    1.268696
      5          1           0       -0.765453    1.835364   -1.214365
      6          1           0        0.666912   -1.845811    1.268696
      7          1           0        0.765453   -1.835364   -1.214365
      8          1           0       -1.433900   -1.840507   -0.057249
      9          1           0        0.000000   -0.000000    0.009015
 ---------------------------------------------------------------------
 Rotational constants (GHZ):          40.6079421           3.0015553           3.0015253
 Leave Link  202 at Sat Apr 17 05:35:14 2021, MaxMem=   104857600 cpu:               7.1 elap:               0.2
 (Enter /s/ls4/users/knvvv/bin/g16sse/l301.exe)
 Standard basis: def2QZVP (5D, 7F)
 Ernie: Thresh=  0.10000D-02 Tol=  0.10000D-05 Strict=F.
 There are   210 symmetry adapted cartesian basis functions of A   symmetry.
 There are   207 symmetry adapted cartesian basis functions of B   symmetry.
 There are   176 symmetry adapted basis functions of A   symmetry.
 There are   174 symmetry adapted basis functions of B   symmetry.
   350 basis functions,   508 primitive gaussians,   417 cartesian basis functions
    17 alpha electrons       17 beta electrons
       nuclear repulsion energy        88.1633678942 Hartrees.
 IExCor= 4336 DFT=T Ex+Corr=M062X ExCW=0 ScaHFX=  0.540000
 ScaDFX=  1.000000  1.000000  1.000000  1.000000 ScalE2=  1.000000  1.000000
 IRadAn=      5 IRanWt=     -1 IRanGd=            0 ICorTp=0 IEmpDi=  4
 NAtoms=    9 NActive=    9 NUniq=    5 SFac= 3.24D+00 NAtFMM=   60 NAOKFM=F Big=F
 Integral buffers will be    131072 words long.
 Raffenetti 2 integral format.
 Two-electron integral symmetry is turned on.
 Leave Link  301 at Sat Apr 17 05:35:14 2021, MaxMem=   104857600 cpu:               5.6 elap:               0.1
 (Enter /s/ls4/users/knvvv/bin/g16sse/l302.exe)
 NPDir=0 NMtPBC=     1 NCelOv=     1 NCel=       1 NClECP=     1 NCelD=      1
         NCelK=      1 NCelE2=     1 NClLst=     1 CellRange=     0.0.
 One-electron integrals computed using PRISM.
 One-electron integral symmetry used in STVInt
 PrsmSu:  requested number of processors reduced to:   4 ShMem   1 Linda.
 PrsmSu:  requested number of processors reduced to:  21 ShMem   1 Linda.
   2 Symmetry operations used in ECPInt.
 ECPInt:  NShTT=    6555 NPrTT=   15247 LenC2=    6371 LenP2D=   12690.
 LDataN:  DoStor=T MaxTD1= 8 Len=  415
 Number of processors reduced to  21 by ecpmxn.
 NBasis=   350 RedAO= T EigKep=  1.10D-04  NBF=   176   174
 NBsUse=   350 1.00D-06 EigRej= -1.00D+00 NBFU=   176   174
 Precomputing XC quadrature grid using
 IXCGrd= 4 IRadAn=           5 IRanWt=          -1 IRanGd=           0 AccXCQ= 0.00D+00.
 Generated NRdTot=       0 NPtTot=           0 NUsed=           0 NTot=          32
 NSgBfM=   417   417   417   417   417 MxSgAt=     9 MxSgA2=     9.
 Leave Link  302 at Sat Apr 17 05:35:24 2021, MaxMem=   104857600 cpu:             446.5 elap:               9.6
 (Enter /s/ls4/users/knvvv/bin/g16sse/l303.exe)
 DipDrv:  MaxL=1.
 Leave Link  303 at Sat Apr 17 05:35:25 2021, MaxMem=   104857600 cpu:              53.0 elap:               1.2
 (Enter /s/ls4/users/knvvv/bin/g16sse/l401.exe)
 SCF N**3 symmetry information disabled.
 ExpMin= 5.30D-02 ExpMax= 9.18D+05 ExpMxC= 1.04D+03 IAcc=3 IRadAn=         5 AccDes= 0.00D+00
 Harris functional with IExCor= 1009 and IRadAn=       5 diagonalized for initial guess.
 HarFok:  IExCor= 1009 AccDes= 0.00D+00 IRadAn=         5 IDoV= 1 UseB2=F ITyADJ=14
 ICtDFT=  3500011 ScaDFX=  1.000000  1.000000  1.000000  1.000000
 FoFCou: FMM=F IPFlag=           0 FMFlag=      100000 FMFlg1=           0
         NFxFlg=           0 DoJE=T BraDBF=F KetDBF=T FulRan=T
         wScrn=  0.000000 ICntrl=       500 IOpCl=  0 I1Cent=   200000004 NGrid=           0
         NMat0=    1 NMatS0=      1 NMatT0=    0 NMatD0=    1 NMtDS0=    0 NMtDT0=    0
 Petite list used in FoFCou.
 CoulSu:  requested number of processors reduced to:  20 ShMem   1 Linda.
 CoulSu:  requested number of processors reduced to:  20 ShMem   1 Linda.
 CoulSu:  requested number of processors reduced to:  21 ShMem   1 Linda.
 CoulSu:  requested number of processors reduced to:  21 ShMem   1 Linda.
 Harris En= -582.601058688612    
 JPrj=0 DoOrth=F DoCkMO=F.
 Initial guess orbital symmetries:
       Occupied  (B) (A) (A) (B) (A) (B) (B) (A) (A) (B) (A) (B)
                 (A) (A) (B) (B) (A)
       Virtual   (B) (A) (B) (A) (B) (A) (B) (A) (A) (B) (B) (A)
                 (B) (B) (A) (A) (B) (A) (A) (B) (A) (B) (B) (A)
                 (B) (A) (A) (A) (B) (B) (A) (B) (A) (A) (B) (B)
                 (A) (B) (A) (A) (B) (B) (B) (A) (B) (A) (B) (A)
                 (B) (A) (B) (A) (A) (A) (B) (B) (A) (B) (A) (A)
                 (B) (A) (B) (B) (A) (B) (A) (B) (A) (A) (A) (B)
                 (A) (B) (B) (B) (A) (B) (A) (B) (A) (B) (A) (B)
                 (A) (A) (B) (A) (A) (B) (B) (A) (B) (A) (A) (B)
                 (A) (B) (B) (A) (B) (A) (B) (B) (A) (B) (A) (A)
                 (B) (B) (A) (B) (A) (B) (B) (A) (B) (A) (A) (A)
                 (B) (B) (A) (B) (A) (B) (A) (A) (B) (A) (B) (B)
                 (A) (B) (A) (A) (B) (B) (A) (B) (A) (A) (B) (A)
                 (B) (B) (B) (A) (A) (A) (B) (B) (A) (A) (B) (A)
                 (B) (B) (B) (A) (A) (B) (A) (B) (A) (A) (B) (B)
                 (A) (B) (B) (A) (A) (B) (B) (A) (A) (B) (A) (A)
                 (B) (A) (B) (A) (B) (A) (A) (B) (A) (B) (B) (A)
                 (A) (B) (A) (B) (B) (A) (B) (A) (B) (B) (A) (B)
                 (A) (B) (A) (B) (A) (A) (B) (A) (B) (B) (A) (A)
                 (A) (B) (B) (A) (B) (A) (B) (B) (A) (A) (B) (A)
                 (B) (B) (A) (A) (B) (B) (A) (A) (B) (A) (B) (B)
                 (B) (A) (A) (B) (A) (B) (A) (A) (B) (B) (A) (B)
                 (A) (B) (A) (A) (B) (B) (A) (B) (A) (B) (A) (A)
                 (B) (B) (A) (B) (A) (B) (B) (A) (A) (B) (A) (A)
                 (B) (A) (B) (B) (A) (B) (A) (A) (B) (A) (B) (A)
                 (B) (B) (A) (A) (B) (A) (B) (A) (B) (A) (B) (A)
                 (A) (B) (A) (B) (B) (B) (A) (A) (B) (B) (A) (A)
                 (B) (A) (B) (A) (B) (A) (B) (B) (A) (A) (B) (A)
                 (A) (B) (B) (B) (A) (B) (A) (B) (A)
 The electronic state of the initial guess is 1-A.
 Leave Link  401 at Sat Apr 17 05:35:29 2021, MaxMem=   104857600 cpu:             171.1 elap:               3.9
 (Enter /s/ls4/users/knvvv/bin/g16sse/l502.exe)
 Integral symmetry usage will be decided dynamically.
 Closed shell SCF:
 Using DIIS extrapolation, IDIIS=  1040.
 NGot=   104857600 LenX=   104485508 LenY=   104311178
 Requested convergence on RMS density matrix=1.00D-08 within 128 cycles.
 Requested convergence on MAX density matrix=1.00D-06.
 Requested convergence on             energy=1.00D-06.
 No special actions if energy rises.
 Fock matrices will be formed incrementally for  20 cycles.
 Integral accuracy reduced to 1.0D-05 until final iterations.

 Cycle   1  Pass 0  IDiag  1:
 FoFJK:  IHMeth= 1 ICntrl=       0 DoSepK=F KAlg= 0 I1Cent=           0 FoldK=F
 IRaf= 940000000 NMat=       1 IRICut=       1 DoRegI=T DoRafI=F ISym2E= 1 IDoP0=0 IntGTp=1.
 FoFCou: FMM=F IPFlag=           0 FMFlag=      100000 FMFlg1=           0
         NFxFlg=           0 DoJE=F BraDBF=F KetDBF=F FulRan=T
         wScrn=  0.000000 ICntrl=         0 IOpCl=  0 I1Cent=           0 NGrid=           0
         NMat0=    1 NMatS0=      1 NMatT0=    0 NMatD0=    1 NMtDS0=    0 NMtDT0=    0
 Petite list used in FoFCou.
 CoulSu:  requested number of processors reduced to:  21 ShMem   1 Linda.
 E= -582.816135522394    
 DIIS: error= 2.24D-02 at cycle   1 NSaved=   1.
 NSaved= 1 IEnMin= 1 EnMin= -582.816135522394     IErMin= 1 ErrMin= 2.24D-02
 ErrMax= 2.24D-02  0.00D+00 EMaxC= 1.00D-01 BMatC= 6.73D-02 BMatP= 6.73D-02
 IDIUse=3 WtCom= 7.76D-01 WtEn= 2.24D-01
 Coeff-Com:  0.100D+01
 Coeff-En:   0.100D+01
 Coeff:      0.100D+01
 Gap=     0.364 Goal=   None    Shift=    0.000
 GapD=    0.364 DampG=1.000 DampE=0.500 DampFc=0.5000 IDamp=-1.
 Damping current iteration by 5.00D-01
 RMSDP=7.26D-04 MaxDP=3.62D-02              OVMax= 5.34D-02

 Cycle   2  Pass 0  IDiag  1:
 RMSU=  3.62D-04    CP:  1.00D+00
 CoulSu:  requested number of processors reduced to:  21 ShMem   1 Linda.
 E= -582.831923136852     Delta-E=       -0.015787614458 Rises=F Damp=T
 DIIS: error= 1.20D-02 at cycle   2 NSaved=   2.
 NSaved= 2 IEnMin= 2 EnMin= -582.831923136852     IErMin= 2 ErrMin= 1.20D-02
 ErrMax= 1.20D-02  0.00D+00 EMaxC= 1.00D-01 BMatC= 1.27D-02 BMatP= 6.73D-02
 IDIUse=3 WtCom= 8.80D-01 WtEn= 1.20D-01
 Coeff-Com: -0.600D+00 0.160D+01
 Coeff-En:   0.000D+00 0.100D+01
 Coeff:     -0.527D+00 0.153D+01
 Gap=     0.386 Goal=   None    Shift=    0.000
 RMSDP=3.05D-04 MaxDP=1.47D-02 DE=-1.58D-02 OVMax= 2.03D-02

 Cycle   3  Pass 0  IDiag  1:
 RMSU=  1.29D-04    CP:  1.00D+00  1.76D+00
 CoulSu:  requested number of processors reduced to:  21 ShMem   1 Linda.
 E= -582.845812001346     Delta-E=       -0.013888864494 Rises=F Damp=F
 DIIS: error= 1.06D-03 at cycle   3 NSaved=   3.
 NSaved= 3 IEnMin= 3 EnMin= -582.845812001346     IErMin= 3 ErrMin= 1.06D-03
 ErrMax= 1.06D-03  0.00D+00 EMaxC= 1.00D-01 BMatC= 2.10D-04 BMatP= 1.27D-02
 IDIUse=3 WtCom= 9.89D-01 WtEn= 1.06D-02
 Coeff-Com: -0.133D+00 0.266D+00 0.866D+00
 Coeff-En:   0.000D+00 0.000D+00 0.100D+01
 Coeff:     -0.131D+00 0.263D+00 0.868D+00
 Gap=     0.384 Goal=   None    Shift=    0.000
 RMSDP=3.88D-05 MaxDP=4.36D-03 DE=-1.39D-02 OVMax= 3.14D-03

 Cycle   4  Pass 0  IDiag  1:
 RMSU=  3.31D-05    CP:  1.00D+00  1.81D+00  1.09D+00
 CoulSu:  requested number of processors reduced to:  21 ShMem   1 Linda.
 E= -582.845899375977     Delta-E=       -0.000087374631 Rises=F Damp=F
 DIIS: error= 1.18D-04 at cycle   4 NSaved=   4.
 NSaved= 4 IEnMin= 4 EnMin= -582.845899375977     IErMin= 4 ErrMin= 1.18D-04
 ErrMax= 1.18D-04  0.00D+00 EMaxC= 1.00D-01 BMatC= 1.20D-06 BMatP= 2.10D-04
 IDIUse=3 WtCom= 9.99D-01 WtEn= 1.18D-03
 Coeff-Com: -0.127D-01 0.247D-01 0.651D-01 0.923D+00
 Coeff-En:   0.000D+00 0.000D+00 0.000D+00 0.100D+01
 Coeff:     -0.127D-01 0.246D-01 0.650D-01 0.923D+00
 Gap=     0.384 Goal=   None    Shift=    0.000
 RMSDP=4.65D-06 MaxDP=2.47D-04 DE=-8.74D-05 OVMax= 5.71D-04

 Initial convergence to 1.0D-05 achieved.  Increase integral accuracy.
 Cycle   5  Pass 1  IDiag  1:
 CoulSu:  requested number of processors reduced to:  20 ShMem   1 Linda.
 E= -582.845947582076     Delta-E=       -0.000048206099 Rises=F Damp=F
 DIIS: error= 1.57D-04 at cycle   1 NSaved=   1.
 NSaved= 1 IEnMin= 1 EnMin= -582.845947582076     IErMin= 1 ErrMin= 1.57D-04
 ErrMax= 1.57D-04  0.00D+00 EMaxC= 1.00D-01 BMatC= 3.42D-06 BMatP= 3.42D-06
 IDIUse=3 WtCom= 9.98D-01 WtEn= 1.57D-03
 Coeff-Com:  0.100D+01
 Coeff-En:   0.100D+01
 Coeff:      0.100D+01
 Gap=     0.384 Goal=   None    Shift=    0.000
 RMSDP=4.65D-06 MaxDP=2.47D-04 DE=-4.82D-05 OVMax= 2.86D-04

 Cycle   6  Pass 1  IDiag  1:
 RMSU=  3.10D-05    CP:  1.00D+00
 CoulSu:  requested number of processors reduced to:  20 ShMem   1 Linda.
 E= -582.845948764282     Delta-E=       -0.000001182206 Rises=F Damp=F
 DIIS: error= 2.29D-05 at cycle   2 NSaved=   2.
 NSaved= 2 IEnMin= 2 EnMin= -582.845948764282     IErMin= 2 ErrMin= 2.29D-05
 ErrMax= 2.29D-05  0.00D+00 EMaxC= 1.00D-01 BMatC= 6.24D-08 BMatP= 3.42D-06
 IDIUse=1 WtCom= 1.00D+00 WtEn= 0.00D+00
 Coeff-Com:  0.617D-02 0.994D+00
 Coeff:      0.617D-02 0.994D+00
 Gap=     0.384 Goal=   None    Shift=    0.000
 RMSDP=9.06D-07 MaxDP=4.36D-05 DE=-1.18D-06 OVMax= 1.23D-04

 Cycle   7  Pass 1  IDiag  1:
 RMSU=  7.52D-07    CP:  1.00D+00  1.02D+00
 CoulSu:  requested number of processors reduced to:  20 ShMem   1 Linda.
 E= -582.845948813268     Delta-E=       -0.000000048986 Rises=F Damp=F
 DIIS: error= 1.36D-05 at cycle   3 NSaved=   3.
 NSaved= 3 IEnMin= 3 EnMin= -582.845948813268     IErMin= 3 ErrMin= 1.36D-05
 ErrMax= 1.36D-05  0.00D+00 EMaxC= 1.00D-01 BMatC= 1.68D-08 BMatP= 6.24D-08
 IDIUse=1 WtCom= 1.00D+00 WtEn= 0.00D+00
 Coeff-Com: -0.162D-01 0.325D+00 0.691D+00
 Coeff:     -0.162D-01 0.325D+00 0.691D+00
 Gap=     0.384 Goal=   None    Shift=    0.000
 RMSDP=2.33D-07 MaxDP=2.49D-05 DE=-4.90D-08 OVMax= 3.85D-05

 Cycle   8  Pass 1  IDiag  1:
 RMSU=  2.09D-07    CP:  1.00D+00  1.02D+00  8.83D-01
 CoulSu:  requested number of processors reduced to:  20 ShMem   1 Linda.
 E= -582.845948825415     Delta-E=       -0.000000012147 Rises=F Damp=F
 DIIS: error= 8.27D-07 at cycle   4 NSaved=   4.
 NSaved= 4 IEnMin= 4 EnMin= -582.845948825415     IErMin= 4 ErrMin= 8.27D-07
 ErrMax= 8.27D-07  0.00D+00 EMaxC= 1.00D-01 BMatC= 1.18D-10 BMatP= 1.68D-08
 IDIUse=1 WtCom= 1.00D+00 WtEn= 0.00D+00
 Coeff-Com:  0.465D-03-0.540D-01-0.102D+00 0.116D+01
 Coeff:      0.465D-03-0.540D-01-0.102D+00 0.116D+01
 Gap=     0.384 Goal=   None    Shift=    0.000
 RMSDP=7.99D-08 MaxDP=1.22D-05 DE=-1.21D-08 OVMax= 5.11D-06

 Cycle   9  Pass 1  IDiag  1:
 RMSU=  4.29D-08    CP:  1.00D+00  1.02D+00  8.89D-01  1.32D+00
 CoulSu:  requested number of processors reduced to:  21 ShMem   1 Linda.
 E= -582.845948825643     Delta-E=       -0.000000000228 Rises=F Damp=F
 DIIS: error= 2.18D-07 at cycle   5 NSaved=   5.
 NSaved= 5 IEnMin= 5 EnMin= -582.845948825643     IErMin= 5 ErrMin= 2.18D-07
 ErrMax= 2.18D-07  0.00D+00 EMaxC= 1.00D-01 BMatC= 3.74D-12 BMatP= 1.18D-10
 IDIUse=1 WtCom= 1.00D+00 WtEn= 0.00D+00
 Coeff-Com:  0.266D-03-0.973D-02-0.188D-01 0.509D-01 0.977D+00
 Coeff:      0.266D-03-0.973D-02-0.188D-01 0.509D-01 0.977D+00
 Gap=     0.384 Goal=   None    Shift=    0.000
 RMSDP=1.13D-08 MaxDP=1.60D-06 DE=-2.28D-10 OVMax= 1.01D-06

 Cycle  10  Pass 1  IDiag  1:
 RMSU=  4.82D-09    CP:  1.00D+00  1.02D+00  8.91D-01  1.36D+00  1.12D+00
 CoulSu:  requested number of processors reduced to:  21 ShMem   1 Linda.
 E= -582.845948825657     Delta-E=       -0.000000000014 Rises=F Damp=F
 DIIS: error= 3.21D-08 at cycle   6 NSaved=   6.
 NSaved= 6 IEnMin= 6 EnMin= -582.845948825657     IErMin= 6 ErrMin= 3.21D-08
 ErrMax= 3.21D-08  0.00D+00 EMaxC= 1.00D-01 BMatC= 2.78D-13 BMatP= 3.74D-12
 IDIUse=1 WtCom= 1.00D+00 WtEn= 0.00D+00
 Coeff-Com:  0.554D-04 0.646D-04-0.732D-03-0.306D-01 0.161D+00 0.870D+00
 Coeff:      0.554D-04 0.646D-04-0.732D-03-0.306D-01 0.161D+00 0.870D+00
 Gap=     0.384 Goal=   None    Shift=    0.000
 RMSDP=2.19D-09 MaxDP=3.43D-07 DE=-1.41D-11 OVMax= 2.17D-07

 SCF Done:  E(RM062X) =  -582.845948826     A.U. after   10 cycles
            NFock= 10  Conv=0.22D-08     -V/T= 2.0019
 KE= 5.817450011298D+02 PE=-1.555854921356D+03 EE= 3.031006035060D+02
 Leave Link  502 at Sat Apr 17 05:35:59 2021, MaxMem=   104857600 cpu:            1026.2 elap:              29.9
 (Enter /s/ls4/users/knvvv/bin/g16sse/l601.exe)
 Copying SCF densities to generalized density rwf, IOpCl= 0 IROHF=0.

 **********************************************************************

            Population analysis using the SCF density.

 **********************************************************************

 Orbital symmetries:
       Occupied  (A) (B) (A) (B) (A) (B) (A) (B) (B) (A) (A) (B)
                 (A) (A) (B) (B) (A)
       Virtual   (B) (A) (B) (A) (A) (B) (B) (A) (A) (B) (B) (B)
                 (A) (B) (A) (A) (A) (B) (A) (B) (A) (B) (A) (B)
                 (B) (A) (A) (A) (B) (B) (A) (B) (A) (A) (B) (A)
                 (B) (A) (B) (B) (A) (B) (B) (A) (B) (A) (B) (A)
                 (A) (B) (B) (A) (A) (B) (A) (B) (B) (A) (A) (A)
                 (B) (A) (B) (A) (B) (A) (B) (A) (B) (A) (A) (B)
                 (A) (B) (B) (B) (A) (B) (A) (B) (A) (B) (A) (A)
                 (B) (A) (B) (A) (A) (B) (B) (A) (B) (A) (B) (A)
                 (A) (B) (B) (A) (B) (A) (B) (A) (B) (B) (A) (A)
                 (B) (B) (A) (B) (A) (B) (B) (A) (B) (A) (A) (A)
                 (B) (B) (A) (B) (A) (A) (B) (B) (A) (A) (B) (B)
                 (A) (B) (A) (A) (B) (B) (A) (B) (A) (A) (B) (A)
                 (B) (B) (B) (A) (A) (B) (A) (A) (B) (A) (B) (B)
                 (A) (B) (A) (B) (A) (B) (A) (B) (A) (A) (B) (B)
                 (A) (B) (A) (B) (A) (B) (A) (B) (A) (A) (B) (A)
                 (B) (A) (B) (A) (B) (A) (A) (B) (A) (B) (B) (A)
                 (A) (B) (A) (B) (B) (A) (B) (A) (B) (B) (A) (B)
                 (A) (B) (A) (B) (A) (B) (A) (B) (A) (A) (B) (A)
                 (B) (B) (A) (A) (B) (B) (A) (B) (A) (A) (B) (A)
                 (B) (A) (B) (A) (B) (A) (B) (B) (A) (B) (A) (B)
                 (B) (A) (A) (A) (B) (B) (A) (A) (B) (A) (B) (B)
                 (A) (B) (A) (B) (A) (B) (A) (A) (B) (B) (A) (B)
                 (A) (B) (A) (A) (B) (B) (A) (B) (A) (A) (B) (B)
                 (A) (B) (A) (A) (B) (B) (A) (A) (B) (A) (B) (A)
                 (B) (A) (B) (A) (B) (A) (B) (A) (B) (A) (B) (A)
                 (A) (B) (B) (A) (B) (A) (A) (B) (B) (B) (A) (A)
                 (B) (A) (B) (A) (B) (B) (A) (A) (B) (A) (B) (A)
                 (A) (B) (B) (B) (A) (B) (A) (B) (A)
 The electronic state is 1-A.
 Alpha  occ. eigenvalues --  -67.24421 -67.24421  -5.78441  -5.78439  -4.09866
 Alpha  occ. eigenvalues --   -4.09863  -4.09365  -4.09365  -4.09365  -4.09365
 Alpha  occ. eigenvalues --   -0.88158  -0.80939  -0.65627  -0.63197  -0.63183
 Alpha  occ. eigenvalues --   -0.62166  -0.62150
 Alpha virt. eigenvalues --   -0.23704  -0.16098  -0.13723  -0.13718  -0.11259
 Alpha virt. eigenvalues --   -0.11251  -0.10521  -0.08589  -0.05567  -0.05564
 Alpha virt. eigenvalues --   -0.05305  -0.04043  -0.04040  -0.02715  -0.02713
 Alpha virt. eigenvalues --   -0.00904   0.06626   0.06629   0.06951   0.08550
 Alpha virt. eigenvalues --    0.08554   0.09810   0.09817   0.10116   0.12296
 Alpha virt. eigenvalues --    0.14931   0.18449   0.20351   0.20372   0.20990
 Alpha virt. eigenvalues --    0.24589   0.24590   0.26269   0.35176   0.35976
 Alpha virt. eigenvalues --    0.37617   0.37619   0.38143   0.38150   0.39088
 Alpha virt. eigenvalues --    0.39096   0.40540   0.43184   0.43191   0.47585
 Alpha virt. eigenvalues --    0.47597   0.49200   0.50706   0.51675   0.51714
 Alpha virt. eigenvalues --    0.52183   0.52223   0.58122   0.59322   0.59506
 Alpha virt. eigenvalues --    0.59518   0.59803   0.59812   0.65931   0.70026
 Alpha virt. eigenvalues --    0.70037   0.74011   0.74041   0.75019   0.75114
 Alpha virt. eigenvalues --    0.75211   0.75614   0.76410   0.76413   0.78603
 Alpha virt. eigenvalues --    0.80636   0.84845   0.86612   0.86620   0.89995
 Alpha virt. eigenvalues --    0.94464   0.95102   0.95720   0.95764   1.02584
 Alpha virt. eigenvalues --    1.08241   1.08278   1.09300   1.12297   1.12319
 Alpha virt. eigenvalues --    1.15199   1.15484   1.15534   1.16009   1.16064
 Alpha virt. eigenvalues --    1.20884   1.45693   1.47767   1.47770   1.50763
 Alpha virt. eigenvalues --    1.50790   1.54179   1.55329   1.56556   1.56603
 Alpha virt. eigenvalues --    1.57657   1.61773   1.61794   1.65155   1.65183
 Alpha virt. eigenvalues --    1.65213   1.72766   1.73270   1.73301   1.74839
 Alpha virt. eigenvalues --    1.74862   1.79876   1.80523   1.80630   1.81569
 Alpha virt. eigenvalues --    1.81687   1.83441   1.85890   1.90646   1.90893
 Alpha virt. eigenvalues --    1.90950   1.92746   1.92849   1.96580   1.96816
 Alpha virt. eigenvalues --    2.02516   2.02558   2.03117   2.03179   2.06032
 Alpha virt. eigenvalues --    2.06067   2.09523   2.09547   2.13174   2.14103
 Alpha virt. eigenvalues --    2.16403   2.16458   2.18740   2.18819   2.21555
 Alpha virt. eigenvalues --    2.23849   2.25670   2.26013   2.31625   2.31625
 Alpha virt. eigenvalues --    2.36603   2.39137   2.39158   2.42521   2.42568
 Alpha virt. eigenvalues --    2.43910   2.47352   2.47487   2.52655   2.52660
 Alpha virt. eigenvalues --    2.52786   2.53563   2.56463   2.56469   2.57150
 Alpha virt. eigenvalues --    2.57164   2.65138   2.65139   2.72559   2.72564
 Alpha virt. eigenvalues --    2.75008   2.75026   2.86989   2.92808   2.96064
 Alpha virt. eigenvalues --    2.96112   2.96255   2.97476   2.97530   3.00734
 Alpha virt. eigenvalues --    3.01354   3.08027   3.11236   3.11240   3.14111
 Alpha virt. eigenvalues --    3.14158   3.17093   3.17186   3.17778   3.21918
 Alpha virt. eigenvalues --    3.22003   3.29161   3.35878   3.40088   3.43526
 Alpha virt. eigenvalues --    3.52341   3.52344   3.66097   3.66101   3.67401
 Alpha virt. eigenvalues --    3.67425   3.81610   4.69013   4.74744   5.15674
 Alpha virt. eigenvalues --    5.15696   5.17228   5.17254   5.23376   5.23389
 Alpha virt. eigenvalues --    5.28828   5.30003   5.30601   5.30634   5.36140
 Alpha virt. eigenvalues --    5.36965   5.36997   5.37303   5.41547   5.41556
 Alpha virt. eigenvalues --    5.45070   5.45074   5.45306   5.46796   5.48075
 Alpha virt. eigenvalues --    5.48097   5.55521   5.60752   5.62123   5.62138
 Alpha virt. eigenvalues --    5.68851   5.68884   5.77932   5.77968   5.88615
 Alpha virt. eigenvalues --    5.92872   5.95864   5.98117   6.01913   6.02109
 Alpha virt. eigenvalues --    6.04753   6.04909   6.08127   6.10308   6.10397
 Alpha virt. eigenvalues --    6.10697   6.10781   6.12958   6.21605   6.21937
 Alpha virt. eigenvalues --    6.29348   6.29448   6.42247   6.42313   6.50107
 Alpha virt. eigenvalues --    6.50179   6.50880   6.50900   6.51170   6.51871
 Alpha virt. eigenvalues --    6.60739   6.60801   6.72478   6.72523   6.75284
 Alpha virt. eigenvalues --    6.75294   6.78907   6.85260   6.94122   6.95499
 Alpha virt. eigenvalues --    7.32510   7.32576   7.40276   7.40284   7.45225
 Alpha virt. eigenvalues --    7.45413   7.45458   7.45460   7.46115   7.46121
 Alpha virt. eigenvalues --    7.46624   7.52229   7.60808   7.60825   7.63505
 Alpha virt. eigenvalues --    7.63566   7.66743   7.66808   7.67765   7.67806
 Alpha virt. eigenvalues --    7.70971   7.71921   7.72673   7.75822   7.75901
 Alpha virt. eigenvalues --    7.76075   7.79877   7.79949   8.05128   8.05177
 Alpha virt. eigenvalues --    8.27923   8.29194   8.31170   8.35430   8.35435
 Alpha virt. eigenvalues --    8.35708   8.35715   8.42033   8.42058   8.43263
 Alpha virt. eigenvalues --    8.45457   8.47910   8.48010   8.59687   8.67182
 Alpha virt. eigenvalues --    8.67252   8.67708   8.67755   8.70116   8.82370
 Alpha virt. eigenvalues --    9.06649   9.06656   9.10089   9.10099   9.33120
 Alpha virt. eigenvalues --    9.35383  11.86685  12.48199  12.48372  12.55260
 Alpha virt. eigenvalues --   12.55454  12.62954  16.52712  16.64011  58.03848
 Alpha virt. eigenvalues --   58.16890 315.28120 315.50644
          Condensed to atoms (all electrons):
               1          2          3          4          5          6
     1  Si  12.118319   0.053880   0.416639   0.416738   0.416700  -0.001910
     2  Si   0.053880  12.118319  -0.001894  -0.001910  -0.001871   0.416738
     3  H    0.416639  -0.001894   0.569921  -0.010368  -0.010288   0.000033
     4  H    0.416738  -0.001910  -0.010368   0.569886  -0.010319  -0.000020
     5  H    0.416700  -0.001871  -0.010288  -0.010319   0.569838   0.000111
     6  H   -0.001910   0.416738   0.000033  -0.000020   0.000111   0.569886
     7  H   -0.001871   0.416700  -0.000026   0.000111   0.000031  -0.010319
     8  H   -0.001894   0.416639   0.000111   0.000033  -0.000026  -0.010368
     9  H    0.205025   0.205025  -0.008971  -0.008883  -0.009088  -0.008883
               7          8          9
     1  Si  -0.001871  -0.001894   0.205025
     2  Si   0.416700   0.416639   0.205025
     3  H   -0.000026   0.000111  -0.008971
     4  H    0.000111   0.000033  -0.008883
     5  H    0.000031  -0.000026  -0.009088
     6  H   -0.010319  -0.010368  -0.008883
     7  H    0.569838  -0.010288  -0.009088
     8  H   -0.010288   0.569921  -0.008971
     9  H   -0.009088  -0.008971   0.669556
 Mulliken charges:
               1
     1  Si   0.378374
     2  Si   0.378374
     3  H    0.044842
     4  H    0.044733
     5  H    0.044913
     6  H    0.044733
     7  H    0.044913
     8  H    0.044842
     9  H   -0.025722
 Sum of Mulliken charges =   1.00000
 Mulliken charges with hydrogens summed into heavy atoms:
               1
     1  Si   0.487139
     2  Si   0.512861
 Electronic spatial extent (au):  <R**2>=            415.8903
 Charge=              1.0000 electrons
 Dipole moment (field-independent basis, Debye):
    X=             -0.0000    Y=             -0.0000    Z=             -0.0026  Tot=              0.0026
 Quadrupole moment (field-independent basis, Debye-Ang):
   XX=            -26.3046   YY=             -9.3310   ZZ=            -26.3029
   XY=             -0.0029   XZ=              0.0000   YZ=              0.0000
 Traceless Quadrupole moment (field-independent basis, Debye-Ang):
   XX=             -5.6584   YY=             11.3151   ZZ=             -5.6567
   XY=             -0.0029   XZ=              0.0000   YZ=              0.0000
 Octapole moment (field-independent basis, Debye-Ang**2):
  XXX=              0.0000  YYY=              0.0000  ZZZ=              0.0986  XYY=              0.0000
  XXY=              0.0000  XXZ=             -0.0990  XZZ=              0.0000  YZZ=              0.0000
  YYZ=             -0.0311  XYZ=             -0.0004
 Hexadecapole moment (field-independent basis, Debye-Ang**3):
 XXXX=            -64.3755 YYYY=           -361.2490 ZZZZ=            -64.3718 XXXY=              2.3553
 XXXZ=             -0.0000 YYYX=             -0.0357 YYYZ=              0.0000 ZZZX=             -0.0000
 ZZZY=             -0.0000 XXYY=            -83.5030 XXZZ=            -21.4630 YYZZ=            -83.4948
 XXYZ=             -0.0000 YYXZ=             -0.0000 ZZXY=             -2.3832
 N-N= 8.816336789420D+01 E-N=-1.555854924579D+03  KE= 5.817450011298D+02
 PrsmSu:  requested number of processors reduced to:  21 ShMem   1 Linda.
 No NMR shielding tensors so no spin-rotation constants.
 Leave Link  601 at Sat Apr 17 05:36:02 2021, MaxMem=   104857600 cpu:             157.0 elap:               3.5
 (Enter /s/ls4/users/knvvv/bin/g16sse/l801.exe)
 DoSCS=F DFT=T ScalE2(SS,OS)=  1.000000  1.000000
 Range of M.O.s used for correlation:     1   350
 NBasis=   350 NAE=    17 NBE=    17 NFC=     0 NFV=     0
 NROrb=    350 NOA=    17 NOB=    17 NVA=   333 NVB=   333

 **** Warning!!: The largest alpha MO coefficient is  0.30396803D+02

 Leave Link  801 at Sat Apr 17 05:36:02 2021, MaxMem=   104857600 cpu:               3.6 elap:               0.1
 (Enter /s/ls4/users/knvvv/bin/g16sse/l914.exe)
 RHF ground state
 Doing stability rather than CIS.
 Two-electron integrals replicated using symmetry.
 MDV=   104857600 DFT=T DoStab=T Mixed=T DoRPA=F DoScal=F NonHer=F
 Making orbital integer symmetry assigments:
 Orbital symmetries:
       Occupied  (A) (B) (A) (B) (A) (B) (A) (B) (B) (A) (A) (B)
                 (A) (A) (B) (B) (A)
       Virtual   (B) (A) (B) (A) (A) (B) (B) (A) (A) (B) (B) (B)
                 (A) (B) (A) (A) (A) (B) (A) (B) (A) (B) (A) (B)
                 (B) (A) (A) (A) (B) (B) (A) (B) (A) (A) (B) (A)
                 (B) (A) (B) (B) (A) (B) (B) (A) (B) (A) (B) (A)
                 (A) (B) (B) (A) (A) (B) (A) (B) (B) (A) (A) (A)
                 (B) (A) (B) (A) (B) (A) (B) (A) (B) (A) (A) (B)
                 (A) (B) (B) (B) (A) (B) (A) (B) (A) (B) (A) (A)
                 (B) (A) (B) (A) (A) (B) (B) (A) (B) (A) (B) (A)
                 (A) (B) (B) (A) (B) (A) (B) (A) (B) (B) (A) (A)
                 (B) (B) (A) (B) (A) (B) (B) (A) (B) (A) (A) (A)
                 (B) (B) (A) (B) (A) (A) (B) (B) (A) (A) (B) (B)
                 (A) (B) (A) (A) (B) (B) (A) (B) (A) (A) (B) (A)
                 (B) (B) (B) (A) (A) (B) (A) (A) (B) (A) (B) (B)
                 (A) (B) (A) (B) (A) (B) (A) (B) (A) (A) (B) (B)
                 (A) (B) (A) (B) (A) (B) (A) (B) (A) (A) (B) (A)
                 (B) (A) (B) (A) (B) (A) (A) (B) (A) (B) (B) (A)
                 (A) (B) (A) (B) (B) (A) (B) (A) (B) (B) (A) (B)
                 (A) (B) (A) (B) (A) (B) (A) (B) (A) (A) (B) (A)
                 (B) (B) (A) (A) (B) (B) (A) (B) (A) (A) (B) (A)
                 (B) (A) (B) (A) (B) (A) (B) (B) (A) (B) (A) (B)
                 (B) (A) (A) (A) (B) (B) (A) (A) (B) (A) (B) (B)
                 (A) (B) (A) (B) (A) (B) (A) (A) (B) (B) (A) (B)
                 (A) (B) (A) (A) (B) (B) (A) (B) (A) (A) (B) (B)
                 (A) (B) (A) (A) (B) (B) (A) (A) (B) (A) (B) (A)
                 (B) (A) (B) (A) (B) (A) (B) (A) (B) (A) (B) (A)
                 (A) (B) (B) (A) (B) (A) (A) (B) (B) (B) (A) (A)
                 (B) (A) (B) (A) (B) (B) (A) (A) (B) (A) (B) (A)
                 (A) (B) (B) (B) (A) (B) (A) (B) (A)
    24 initial guesses have been made.
 Convergence on wavefunction:    0.001000000000000
 Davidson Disk Diagonalization:  ConvIn= 1.00D-03 SkipCon=T Conv= 1.00D-03.
 Max sub-space:  2000 roots to seek:    24 dimension of matrix:        11322
 Iteration     1 Dimension    24 NMult     0 NNew     24
 Estimated number of processors is:   17
 CISAX will form     1 AO SS matrices at one time.
 NMat=     1 NSing=     1 JSym2X= 2.
 FoFJK:  IHMeth= 1 ICntrl=       0 DoSepK=F KAlg= 0 I1Cent=           0 FoldK=F
 IRaf= 940000000 NMat=       1 IRICut=       1 DoRegI=T DoRafI=F ISym2E= 2 IDoP0=0 IntGTp=1.
 FoFCou: FMM=F IPFlag=           0 FMFlag=      100000 FMFlg1=           0
         NFxFlg=           0 DoJE=F BraDBF=F KetDBF=F FulRan=T
         wScrn=  0.000000 ICntrl=         0 IOpCl=  0 I1Cent=           0 NGrid=           0
         NMat0=    1 NMatS0=      1 NMatT0=    0 NMatD0=    1 NMtDS0=    0 NMtDT0=    0
 Integrals replicated using symmetry in FoFCou.
 CoulSu:  requested number of processors reduced to:  19 ShMem   1 Linda.
 NMat=     1 NSing=     1 JSym2X= 2.
 CoulSu:  requested number of processors reduced to:  19 ShMem   1 Linda.
 NMat=     1 NSing=     1 JSym2X= 2.
 CoulSu:  requested number of processors reduced to:  19 ShMem   1 Linda.
 NMat=     1 NSing=     1 JSym2X= 2.
 CoulSu:  requested number of processors reduced to:  19 ShMem   1 Linda.
 NMat=     1 NSing=     1 JSym2X= 2.
 CoulSu:  requested number of processors reduced to:  19 ShMem   1 Linda.
 NMat=     1 NSing=     1 JSym2X= 2.
 CoulSu:  requested number of processors reduced to:  19 ShMem   1 Linda.
 NMat=     1 NSing=     1 JSym2X= 2.
 CoulSu:  requested number of processors reduced to:  19 ShMem   1 Linda.
 NMat=     1 NSing=     1 JSym2X= 2.
 CoulSu:  requested number of processors reduced to:  19 ShMem   1 Linda.
 NMat=     1 NSing=     1 JSym2X= 2.
 CoulSu:  requested number of processors reduced to:  19 ShMem   1 Linda.
 NMat=     1 NSing=     1 JSym2X= 2.
 CoulSu:  requested number of processors reduced to:  19 ShMem   1 Linda.
 NMat=     1 NSing=     1 JSym2X= 2.
 CoulSu:  requested number of processors reduced to:  19 ShMem   1 Linda.
 NMat=     1 NSing=     1 JSym2X= 2.
 CoulSu:  requested number of processors reduced to:  19 ShMem   1 Linda.
 NMat=     1 NSing=     0 JSym2X= 2.
 CoulSu:  requested number of processors reduced to:  19 ShMem   1 Linda.
 NMat=     1 NSing=     0 JSym2X= 2.
 CoulSu:  requested number of processors reduced to:  19 ShMem   1 Linda.
 NMat=     1 NSing=     0 JSym2X= 2.
 CoulSu:  requested number of processors reduced to:  19 ShMem   1 Linda.
 NMat=     1 NSing=     0 JSym2X= 2.
 CoulSu:  requested number of processors reduced to:  19 ShMem   1 Linda.
 NMat=     1 NSing=     0 JSym2X= 2.
 CoulSu:  requested number of processors reduced to:  19 ShMem   1 Linda.
 NMat=     1 NSing=     0 JSym2X= 2.
 CoulSu:  requested number of processors reduced to:  19 ShMem   1 Linda.
 NMat=     1 NSing=     0 JSym2X= 2.
 CoulSu:  requested number of processors reduced to:  19 ShMem   1 Linda.
 NMat=     1 NSing=     0 JSym2X= 2.
 CoulSu:  requested number of processors reduced to:  19 ShMem   1 Linda.
 NMat=     1 NSing=     0 JSym2X= 2.
 CoulSu:  requested number of processors reduced to:  19 ShMem   1 Linda.
 NMat=     1 NSing=     0 JSym2X= 2.
 CoulSu:  requested number of processors reduced to:  19 ShMem   1 Linda.
 NMat=     1 NSing=     0 JSym2X= 2.
 CoulSu:  requested number of processors reduced to:  19 ShMem   1 Linda.
 NMat=     1 NSing=     0 JSym2X= 2.
 CoulSu:  requested number of processors reduced to:  19 ShMem   1 Linda.
 New state      1 was old state      2
 Excitation Energies [eV] at current iteration:
 Root      1 :     6.894518586722330
 Root      2 :     6.897708138480610
 Root      3 :     7.110096299766024
 Root      4 :     7.118032151737779
 Root      5 :     7.123085674210377
 Root      6 :     7.534028173125749
 Root      7 :     7.537889038539988
 Root      8 :     7.733036033249558
 Root      9 :     7.737297564263963
 Root     10 :     9.698387709185043
 Root     11 :     9.704800253758396
 Root     12 :     9.718578884346732
 Root     13 :     9.883247534150541
 Root     14 :    10.125431919090360
 Root     15 :    10.127603484930440
 Root     16 :    10.152888014114510
 Root     17 :    10.276368952127690
 Root     18 :    10.283178476963470
 Root     19 :    10.294992863462050
 Root     20 :    10.375120437924020
 Root     21 :    10.395562562303700
 Root     22 :    10.966519502835870
 Root     23 :    11.926182866454270
 Root     24 :    12.092787225898390
 Iteration     2 Dimension    48 NMult    24 NNew     24
 Estimated number of processors is:   17
 CISAX will form     1 AO SS matrices at one time.
 NMat=     1 NSing=     1 JSym2X= 2.
 CoulSu:  requested number of processors reduced to:  19 ShMem   1 Linda.
 NMat=     1 NSing=     1 JSym2X= 2.
 CoulSu:  requested number of processors reduced to:  19 ShMem   1 Linda.
 NMat=     1 NSing=     1 JSym2X= 2.
 CoulSu:  requested number of processors reduced to:  19 ShMem   1 Linda.
 NMat=     1 NSing=     1 JSym2X= 2.
 CoulSu:  requested number of processors reduced to:  19 ShMem   1 Linda.
 NMat=     1 NSing=     1 JSym2X= 2.
 CoulSu:  requested number of processors reduced to:  19 ShMem   1 Linda.
 NMat=     1 NSing=     1 JSym2X= 2.
 CoulSu:  requested number of processors reduced to:  19 ShMem   1 Linda.
 NMat=     1 NSing=     1 JSym2X= 2.
 CoulSu:  requested number of processors reduced to:  19 ShMem   1 Linda.
 NMat=     1 NSing=     1 JSym2X= 2.
 CoulSu:  requested number of processors reduced to:  19 ShMem   1 Linda.
 NMat=     1 NSing=     1 JSym2X= 2.
 CoulSu:  requested number of processors reduced to:  19 ShMem   1 Linda.
 NMat=     1 NSing=     1 JSym2X= 2.
 CoulSu:  requested number of processors reduced to:  19 ShMem   1 Linda.
 NMat=     1 NSing=     1 JSym2X= 2.
 CoulSu:  requested number of processors reduced to:  19 ShMem   1 Linda.
 NMat=     1 NSing=     1 JSym2X= 2.
 CoulSu:  requested number of processors reduced to:  19 ShMem   1 Linda.
 NMat=     1 NSing=     0 JSym2X= 2.
 CoulSu:  requested number of processors reduced to:  19 ShMem   1 Linda.
 NMat=     1 NSing=     0 JSym2X= 2.
 CoulSu:  requested number of processors reduced to:  19 ShMem   1 Linda.
 NMat=     1 NSing=     0 JSym2X= 2.
 CoulSu:  requested number of processors reduced to:  19 ShMem   1 Linda.
 NMat=     1 NSing=     0 JSym2X= 2.
 CoulSu:  requested number of processors reduced to:  19 ShMem   1 Linda.
 NMat=     1 NSing=     0 JSym2X= 2.
 CoulSu:  requested number of processors reduced to:  19 ShMem   1 Linda.
 NMat=     1 NSing=     0 JSym2X= 2.
 CoulSu:  requested number of processors reduced to:  19 ShMem   1 Linda.
 NMat=     1 NSing=     0 JSym2X= 2.
 CoulSu:  requested number of processors reduced to:  19 ShMem   1 Linda.
 NMat=     1 NSing=     0 JSym2X= 2.
 CoulSu:  requested number of processors reduced to:  19 ShMem   1 Linda.
 NMat=     1 NSing=     0 JSym2X= 2.
 CoulSu:  requested number of processors reduced to:  19 ShMem   1 Linda.
 NMat=     1 NSing=     0 JSym2X= 2.
 CoulSu:  requested number of processors reduced to:  19 ShMem   1 Linda.
 NMat=     1 NSing=     0 JSym2X= 2.
 CoulSu:  requested number of processors reduced to:  19 ShMem   1 Linda.
 NMat=     1 NSing=     0 JSym2X= 2.
 CoulSu:  requested number of processors reduced to:  19 ShMem   1 Linda.
 Root      1 not converged, maximum delta is    0.066970870999656
 Excitation Energies [eV] at current iteration:
 Root      1 :     6.525272940334680   Change is   -0.369245646387650
 Root      2 :     6.529323278170384   Change is   -0.368384860310226
 Root      3 :     6.559814942174016   Change is   -0.550281357592009
 Root      4 :     6.735936847807081   Change is   -0.382095303930698
 Root      5 :     6.740122849705347   Change is   -0.382962824505030
 Root      6 :     7.317845718827899   Change is   -0.216182454297851
 Root      7 :     7.321834816075819   Change is   -0.216054222464169
 Root      8 :     7.575283601227999   Change is   -0.157752432021559
 Root      9 :     7.579486672907541   Change is   -0.157810891356423
 Root     10 :     8.250039744150202   Change is   -1.448347965034841
 Root     11 :     8.370700205365566   Change is   -1.512547328784976
 Root     12 :     8.514275296091041   Change is   -1.204303588255691
 Root     13 :     8.514679944297551   Change is   -1.190120309460844
 Root     14 :     8.977796143241569   Change is   -1.149807341688869
 Root     15 :     9.265713124564826   Change is   -0.859718794525536
 Root     16 :     9.470701868046380   Change is   -0.682186146068127
 Root     17 :     9.490569759172910   Change is   -1.475949743662954
 Root     18 :     9.898191585578410   Change is   -0.378177366549280
 Root     19 :    10.019694459913050   Change is   -0.263484017050425
 Root     20 :    10.052811819543010   Change is   -0.242181043919035
 Root     21 :    10.108948990131750   Change is   -0.286613572171950
 Root     22 :    10.197947282284390   Change is   -0.177173155639628
 Root     23 :    10.897990179890730   Change is   -1.028192686563545
 Root     24 :    11.004255284928060   Change is   -1.088531940970332
 Iteration     3 Dimension    54 NMult    48 NNew      6
 Estimated number of processors is:   17
 CISAX will form     1 AO SS matrices at one time.
 NMat=     1 NSing=     1 JSym2X= 2.
 CoulSu:  requested number of processors reduced to:  19 ShMem   1 Linda.
 NMat=     1 NSing=     1 JSym2X= 2.
 CoulSu:  requested number of processors reduced to:  19 ShMem   1 Linda.
 NMat=     1 NSing=     1 JSym2X= 2.
 CoulSu:  requested number of processors reduced to:  19 ShMem   1 Linda.
 NMat=     1 NSing=     0 JSym2X= 2.
 CoulSu:  requested number of processors reduced to:  19 ShMem   1 Linda.
 NMat=     1 NSing=     0 JSym2X= 2.
 CoulSu:  requested number of processors reduced to:  19 ShMem   1 Linda.
 NMat=     1 NSing=     0 JSym2X= 2.
 CoulSu:  requested number of processors reduced to:  19 ShMem   1 Linda.
 Root      1 not converged, maximum delta is    0.011692528484752
 Excitation Energies [eV] at current iteration:
 Root      1 :     6.513349831820075   Change is   -0.011923108514604
 Root      2 :     6.517634719752224   Change is   -0.011688558418160
 Root      3 :     6.532895278207277   Change is   -0.026919663966739
 Root      4 :     7.298532887048338   Change is   -0.019312831779561
 Root      5 :     7.302713261133281   Change is   -0.019121554942539
 Root      6 :     7.567888833192038   Change is   -0.007394768035961
 Iteration     4 Dimension    60 NMult    54 NNew      6
 Estimated number of processors is:   17
 CISAX will form     1 AO SS matrices at one time.
 NMat=     1 NSing=     1 JSym2X= 2.
 CoulSu:  requested number of processors reduced to:  19 ShMem   1 Linda.
 NMat=     1 NSing=     1 JSym2X= 2.
 CoulSu:  requested number of processors reduced to:  19 ShMem   1 Linda.
 NMat=     1 NSing=     1 JSym2X= 2.
 CoulSu:  requested number of processors reduced to:  19 ShMem   1 Linda.
 NMat=     1 NSing=     0 JSym2X= 2.
 CoulSu:  requested number of processors reduced to:  19 ShMem   1 Linda.
 NMat=     1 NSing=     0 JSym2X= 2.
 CoulSu:  requested number of processors reduced to:  19 ShMem   1 Linda.
 NMat=     1 NSing=     0 JSym2X= 2.
 CoulSu:  requested number of processors reduced to:  19 ShMem   1 Linda.
 Root      1 not converged, maximum delta is    0.013378083150428
 Excitation Energies [eV] at current iteration:
 Root      1 :     6.512286973265528   Change is   -0.001062858554547
 Root      2 :     6.516627745798455   Change is   -0.001006973953770
 Root      3 :     6.527370642731293   Change is   -0.005524635475983
 Root      4 :     7.297240855729876   Change is   -0.001292031318462
 Root      5 :     7.301686860761948   Change is   -0.001026400371332
 Root      6 :     7.567593621929128   Change is   -0.000295211262910
 Iteration     5 Dimension    66 NMult    60 NNew      6
 Estimated number of processors is:   17
 CISAX will form     1 AO SS matrices at one time.
 NMat=     1 NSing=     1 JSym2X= 2.
 CoulSu:  requested number of processors reduced to:  19 ShMem   1 Linda.
 NMat=     1 NSing=     1 JSym2X= 2.
 CoulSu:  requested number of processors reduced to:  19 ShMem   1 Linda.
 NMat=     1 NSing=     1 JSym2X= 2.
 CoulSu:  requested number of processors reduced to:  19 ShMem   1 Linda.
 NMat=     1 NSing=     0 JSym2X= 2.
 CoulSu:  requested number of processors reduced to:  19 ShMem   1 Linda.
 NMat=     1 NSing=     0 JSym2X= 2.
 CoulSu:  requested number of processors reduced to:  19 ShMem   1 Linda.
 NMat=     1 NSing=     0 JSym2X= 2.
 CoulSu:  requested number of processors reduced to:  19 ShMem   1 Linda.
 Root      1 not converged, maximum delta is    0.004892567962446
 Excitation Energies [eV] at current iteration:
 Root      1 :     6.512201410790488   Change is   -0.000085562475040
 Root      2 :     6.516553807099692   Change is   -0.000073938698762
 Root      3 :     6.526205167701780   Change is   -0.001165475029514
 Root      4 :     7.297110588458061   Change is   -0.000130267271814
 Root      5 :     7.301614343547656   Change is   -0.000072517214293
 Root      6 :     7.567558398357812   Change is   -0.000035223571317
 Iteration     6 Dimension    72 NMult    66 NNew      6
 Estimated number of processors is:   17
 CISAX will form     1 AO SS matrices at one time.
 NMat=     1 NSing=     1 JSym2X= 2.
 CoulSu:  requested number of processors reduced to:  19 ShMem   1 Linda.
 NMat=     1 NSing=     1 JSym2X= 2.
 CoulSu:  requested number of processors reduced to:  19 ShMem   1 Linda.
 NMat=     1 NSing=     1 JSym2X= 2.
 CoulSu:  requested number of processors reduced to:  19 ShMem   1 Linda.
 NMat=     1 NSing=     0 JSym2X= 2.
 CoulSu:  requested number of processors reduced to:  19 ShMem   1 Linda.
 NMat=     1 NSing=     0 JSym2X= 2.
 CoulSu:  requested number of processors reduced to:  19 ShMem   1 Linda.
 NMat=     1 NSing=     0 JSym2X= 2.
 CoulSu:  requested number of processors reduced to:  19 ShMem   1 Linda.
 Root      1 has converged.
 Excitation Energies [eV] at current iteration:
 Root      1 :     6.512198074351955   Change is   -0.000003336438532
 Root      2 :     6.516551783980079   Change is   -0.000002023119613
 Root      3 :     6.526090301277953   Change is   -0.000114866423826
 Root      4 :     7.297105015658762   Change is   -0.000005572799299
 Root      5 :     7.301604660702819   Change is   -0.000009682844836
 Root      6 :     7.567556452448541   Change is   -0.000001945909271
 Convergence achieved on expansion vectors.
 ***********************************************************************
 Stability analysis using <AA,BB:AA,BB> singles matrix:
 ***********************************************************************
 1PDM for each excited state written to RWF  633
 Ground to excited state transition densities written to RWF  633

 Eigenvectors of the stability matrix:
 
 Eigenvector   1:      Triplet-B    Eigenvalue= 0.2393189  <S**2>=2.000
      15 -> 19         0.14419
      17 -> 18         0.67414
 The wavefunction is stable under the perturbations considered.
 Leave Link  914 at Sat Apr 17 05:46:46 2021, MaxMem=   104857600 cpu:           25626.6 elap:             643.2
 (Enter /s/ls4/users/knvvv/bin/g16sse/l508.exe)
 The wavefunction is already stable.
 Leave Link  508 at Sat Apr 17 05:46:46 2021, MaxMem=   104857600 cpu:               2.2 elap:               0.1
 (Enter /s/ls4/users/knvvv/bin/g16sse/l601.exe)
 Copying SCF densities to generalized density rwf, IOpCl= 0 IROHF=0.

 **********************************************************************

            Population analysis using the SCF density.

 **********************************************************************

 Orbital symmetries:
       Occupied  (A) (B) (A) (B) (A) (B) (A) (B) (B) (A) (A) (B)
                 (A) (A) (B) (B) (A)
       Virtual   (B) (A) (B) (A) (A) (B) (B) (A) (A) (B) (B) (B)
                 (A) (B) (A) (A) (A) (B) (A) (B) (A) (B) (A) (B)
                 (B) (A) (A) (A) (B) (B) (A) (B) (A) (A) (B) (A)
                 (B) (A) (B) (B) (A) (B) (B) (A) (B) (A) (B) (A)
                 (A) (B) (B) (A) (A) (B) (A) (B) (B) (A) (A) (A)
                 (B) (A) (B) (A) (B) (A) (B) (A) (B) (A) (A) (B)
                 (A) (B) (B) (B) (A) (B) (A) (B) (A) (B) (A) (A)
                 (B) (A) (B) (A) (A) (B) (B) (A) (B) (A) (B) (A)
                 (A) (B) (B) (A) (B) (A) (B) (A) (B) (B) (A) (A)
                 (B) (B) (A) (B) (A) (B) (B) (A) (B) (A) (A) (A)
                 (B) (B) (A) (B) (A) (A) (B) (B) (A) (A) (B) (B)
                 (A) (B) (A) (A) (B) (B) (A) (B) (A) (A) (B) (A)
                 (B) (B) (B) (A) (A) (B) (A) (A) (B) (A) (B) (B)
                 (A) (B) (A) (B) (A) (B) (A) (B) (A) (A) (B) (B)
                 (A) (B) (A) (B) (A) (B) (A) (B) (A) (A) (B) (A)
                 (B) (A) (B) (A) (B) (A) (A) (B) (A) (B) (B) (A)
                 (A) (B) (A) (B) (B) (A) (B) (A) (B) (B) (A) (B)
                 (A) (B) (A) (B) (A) (B) (A) (B) (A) (A) (B) (A)
                 (B) (B) (A) (A) (B) (B) (A) (B) (A) (A) (B) (A)
                 (B) (A) (B) (A) (B) (A) (B) (B) (A) (B) (A) (B)
                 (B) (A) (A) (A) (B) (B) (A) (A) (B) (A) (B) (B)
                 (A) (B) (A) (B) (A) (B) (A) (A) (B) (B) (A) (B)
                 (A) (B) (A) (A) (B) (B) (A) (B) (A) (A) (B) (B)
                 (A) (B) (A) (A) (B) (B) (A) (A) (B) (A) (B) (A)
                 (B) (A) (B) (A) (B) (A) (B) (A) (B) (A) (B) (A)
                 (A) (B) (B) (A) (B) (A) (A) (B) (B) (B) (A) (A)
                 (B) (A) (B) (A) (B) (B) (A) (A) (B) (A) (B) (A)
                 (A) (B) (B) (B) (A) (B) (A) (B) (A)
 The electronic state is 1-A.
 Alpha  occ. eigenvalues --  -67.24421 -67.24421  -5.78441  -5.78439  -4.09866
 Alpha  occ. eigenvalues --   -4.09863  -4.09365  -4.09365  -4.09365  -4.09365
 Alpha  occ. eigenvalues --   -0.88158  -0.80939  -0.65627  -0.63197  -0.63183
 Alpha  occ. eigenvalues --   -0.62166  -0.62150
 Alpha virt. eigenvalues --   -0.23704  -0.16098  -0.13723  -0.13718  -0.11259
 Alpha virt. eigenvalues --   -0.11251  -0.10521  -0.08589  -0.05567  -0.05564
 Alpha virt. eigenvalues --   -0.05305  -0.04043  -0.04040  -0.02715  -0.02713
 Alpha virt. eigenvalues --   -0.00904   0.06626   0.06629   0.06951   0.08550
 Alpha virt. eigenvalues --    0.08554   0.09810   0.09817   0.10116   0.12296
 Alpha virt. eigenvalues --    0.14931   0.18449   0.20351   0.20372   0.20990
 Alpha virt. eigenvalues --    0.24589   0.24590   0.26269   0.35176   0.35976
 Alpha virt. eigenvalues --    0.37617   0.37619   0.38143   0.38150   0.39088
 Alpha virt. eigenvalues --    0.39096   0.40540   0.43184   0.43191   0.47585
 Alpha virt. eigenvalues --    0.47597   0.49200   0.50706   0.51675   0.51714
 Alpha virt. eigenvalues --    0.52183   0.52223   0.58122   0.59322   0.59506
 Alpha virt. eigenvalues --    0.59518   0.59803   0.59812   0.65931   0.70026
 Alpha virt. eigenvalues --    0.70037   0.74011   0.74041   0.75019   0.75114
 Alpha virt. eigenvalues --    0.75211   0.75614   0.76410   0.76413   0.78603
 Alpha virt. eigenvalues --    0.80636   0.84845   0.86612   0.86620   0.89995
 Alpha virt. eigenvalues --    0.94464   0.95102   0.95720   0.95764   1.02584
 Alpha virt. eigenvalues --    1.08241   1.08278   1.09300   1.12297   1.12319
 Alpha virt. eigenvalues --    1.15199   1.15484   1.15534   1.16009   1.16064
 Alpha virt. eigenvalues --    1.20884   1.45693   1.47767   1.47770   1.50763
 Alpha virt. eigenvalues --    1.50790   1.54179   1.55329   1.56556   1.56603
 Alpha virt. eigenvalues --    1.57657   1.61773   1.61794   1.65155   1.65183
 Alpha virt. eigenvalues --    1.65213   1.72766   1.73270   1.73301   1.74839
 Alpha virt. eigenvalues --    1.74862   1.79876   1.80523   1.80630   1.81569
 Alpha virt. eigenvalues --    1.81687   1.83441   1.85890   1.90646   1.90893
 Alpha virt. eigenvalues --    1.90950   1.92746   1.92849   1.96580   1.96816
 Alpha virt. eigenvalues --    2.02516   2.02558   2.03117   2.03179   2.06032
 Alpha virt. eigenvalues --    2.06067   2.09523   2.09547   2.13174   2.14103
 Alpha virt. eigenvalues --    2.16403   2.16458   2.18740   2.18819   2.21555
 Alpha virt. eigenvalues --    2.23849   2.25670   2.26013   2.31625   2.31625
 Alpha virt. eigenvalues --    2.36603   2.39137   2.39158   2.42521   2.42568
 Alpha virt. eigenvalues --    2.43910   2.47352   2.47487   2.52655   2.52660
 Alpha virt. eigenvalues --    2.52786   2.53563   2.56463   2.56469   2.57150
 Alpha virt. eigenvalues --    2.57164   2.65138   2.65139   2.72559   2.72564
 Alpha virt. eigenvalues --    2.75008   2.75026   2.86989   2.92808   2.96064
 Alpha virt. eigenvalues --    2.96112   2.96255   2.97476   2.97530   3.00734
 Alpha virt. eigenvalues --    3.01354   3.08027   3.11236   3.11240   3.14111
 Alpha virt. eigenvalues --    3.14158   3.17093   3.17186   3.17778   3.21918
 Alpha virt. eigenvalues --    3.22003   3.29161   3.35878   3.40088   3.43526
 Alpha virt. eigenvalues --    3.52341   3.52344   3.66097   3.66101   3.67401
 Alpha virt. eigenvalues --    3.67425   3.81610   4.69013   4.74744   5.15674
 Alpha virt. eigenvalues --    5.15696   5.17228   5.17254   5.23376   5.23389
 Alpha virt. eigenvalues --    5.28828   5.30003   5.30601   5.30634   5.36140
 Alpha virt. eigenvalues --    5.36965   5.36997   5.37303   5.41547   5.41556
 Alpha virt. eigenvalues --    5.45070   5.45074   5.45306   5.46796   5.48075
 Alpha virt. eigenvalues --    5.48097   5.55521   5.60752   5.62123   5.62138
 Alpha virt. eigenvalues --    5.68851   5.68884   5.77932   5.77968   5.88615
 Alpha virt. eigenvalues --    5.92872   5.95864   5.98117   6.01913   6.02109
 Alpha virt. eigenvalues --    6.04753   6.04909   6.08127   6.10308   6.10397
 Alpha virt. eigenvalues --    6.10697   6.10781   6.12958   6.21605   6.21937
 Alpha virt. eigenvalues --    6.29348   6.29448   6.42247   6.42313   6.50107
 Alpha virt. eigenvalues --    6.50179   6.50880   6.50900   6.51170   6.51871
 Alpha virt. eigenvalues --    6.60739   6.60801   6.72478   6.72523   6.75284
 Alpha virt. eigenvalues --    6.75294   6.78907   6.85260   6.94122   6.95499
 Alpha virt. eigenvalues --    7.32510   7.32576   7.40276   7.40284   7.45225
 Alpha virt. eigenvalues --    7.45413   7.45458   7.45460   7.46115   7.46121
 Alpha virt. eigenvalues --    7.46624   7.52229   7.60808   7.60825   7.63505
 Alpha virt. eigenvalues --    7.63566   7.66743   7.66808   7.67765   7.67806
 Alpha virt. eigenvalues --    7.70971   7.71921   7.72673   7.75822   7.75901
 Alpha virt. eigenvalues --    7.76075   7.79877   7.79949   8.05128   8.05177
 Alpha virt. eigenvalues --    8.27923   8.29194   8.31170   8.35430   8.35435
 Alpha virt. eigenvalues --    8.35708   8.35715   8.42033   8.42058   8.43263
 Alpha virt. eigenvalues --    8.45457   8.47910   8.48010   8.59687   8.67182
 Alpha virt. eigenvalues --    8.67252   8.67708   8.67755   8.70116   8.82370
 Alpha virt. eigenvalues --    9.06649   9.06656   9.10089   9.10099   9.33120
 Alpha virt. eigenvalues --    9.35383  11.86685  12.48199  12.48372  12.55260
 Alpha virt. eigenvalues --   12.55454  12.62954  16.52712  16.64011  58.03848
 Alpha virt. eigenvalues --   58.16890 315.28120 315.50644
          Condensed to atoms (all electrons):
               1          2          3          4          5          6
     1  Si  12.118319   0.053880   0.416639   0.416738   0.416700  -0.001910
     2  Si   0.053880  12.118319  -0.001894  -0.001910  -0.001871   0.416738
     3  H    0.416639  -0.001894   0.569921  -0.010368  -0.010288   0.000033
     4  H    0.416738  -0.001910  -0.010368   0.569886  -0.010319  -0.000020
     5  H    0.416700  -0.001871  -0.010288  -0.010319   0.569838   0.000111
     6  H   -0.001910   0.416738   0.000033  -0.000020   0.000111   0.569886
     7  H   -0.001871   0.416700  -0.000026   0.000111   0.000031  -0.010319
     8  H   -0.001894   0.416639   0.000111   0.000033  -0.000026  -0.010368
     9  H    0.205025   0.205025  -0.008971  -0.008883  -0.009088  -0.008883
               7          8          9
     1  Si  -0.001871  -0.001894   0.205025
     2  Si   0.416700   0.416639   0.205025
     3  H   -0.000026   0.000111  -0.008971
     4  H    0.000111   0.000033  -0.008883
     5  H    0.000031  -0.000026  -0.009088
     6  H   -0.010319  -0.010368  -0.008883
     7  H    0.569838  -0.010288  -0.009088
     8  H   -0.010288   0.569921  -0.008971
     9  H   -0.009088  -0.008971   0.669556
 Mulliken charges:
               1
     1  Si   0.378374
     2  Si   0.378374
     3  H    0.044842
     4  H    0.044733
     5  H    0.044913
     6  H    0.044733
     7  H    0.044913
     8  H    0.044842
     9  H   -0.025722
 Sum of Mulliken charges =   1.00000
 Mulliken charges with hydrogens summed into heavy atoms:
               1
     1  Si   0.487139
     2  Si   0.512861
 Electronic spatial extent (au):  <R**2>=            415.8903
 Charge=              1.0000 electrons
 Dipole moment (field-independent basis, Debye):
    X=             -0.0000    Y=             -0.0000    Z=             -0.0026  Tot=              0.0026
 Quadrupole moment (field-independent basis, Debye-Ang):
   XX=            -26.3046   YY=             -9.3310   ZZ=            -26.3029
   XY=             -0.0029   XZ=              0.0000   YZ=              0.0000
 Traceless Quadrupole moment (field-independent basis, Debye-Ang):
   XX=             -5.6584   YY=             11.3151   ZZ=             -5.6567
   XY=             -0.0029   XZ=              0.0000   YZ=              0.0000
 Octapole moment (field-independent basis, Debye-Ang**2):
  XXX=              0.0000  YYY=              0.0000  ZZZ=              0.0986  XYY=              0.0000
  XXY=              0.0000  XXZ=             -0.0990  XZZ=              0.0000  YZZ=              0.0000
  YYZ=             -0.0311  XYZ=             -0.0004
 Hexadecapole moment (field-independent basis, Debye-Ang**3):
 XXXX=            -64.3755 YYYY=           -361.2490 ZZZZ=            -64.3718 XXXY=              2.3553
 XXXZ=             -0.0000 YYYX=             -0.0357 YYYZ=              0.0000 ZZZX=             -0.0000
 ZZZY=             -0.0000 XXYY=            -83.5030 XXZZ=            -21.4630 YYZZ=            -83.4948
 XXYZ=             -0.0000 YYXZ=             -0.0000 ZZXY=             -2.3832
 N-N= 8.816336789420D+01 E-N=-1.555854924579D+03  KE= 5.817450011298D+02
 PrsmSu:  requested number of processors reduced to:  21 ShMem   1 Linda.
 No NMR shielding tensors so no spin-rotation constants.
 Leave Link  601 at Sat Apr 17 05:46:49 2021, MaxMem=   104857600 cpu:             170.1 elap:               3.8
 (Enter /s/ls4/users/knvvv/bin/g16sse/l9999.exe)

 Test job not archived.
 1\1\GINC-N153\Stability\RM062X\def2QZVP\H7Si2(1+)\KNVVV\17-Apr-2021\0\
 \#P M062X/Def2QZVP Integral=UltraFineGrid SCF=NoSymm Stable=(RExt, Opt
 ) IOp(1/33=1)\\Database calculations.\\1,1\Si,0,-0.0057029,1.591161,-0
 .0004416\Si,0,0.0057029,-1.591161,-0.0004416\H,0,1.4272938,1.8456341,-
 0.0575775\H,0,-0.673523,1.843409,1.2683683\H,0,-0.7720257,1.8326085,-1
 .214693\H,0,0.673523,-1.843409,1.2683683\H,0,0.7720257,-1.8326085,-1.2
 14693\H,0,-1.4272938,-1.8456341,-0.0575775\H,0,0.,0.,0.0086873\\Versio
 n=ES64L-G16RevA.03\State=1-A\HF=-582.8459488\RMSD=2.191e-09\Dipole=0.,
 0.,-0.0010164\Quadrupole=-4.2067077,8.4123302,-4.2056225,-0.0473566,0.
 ,0.\PG=C02 [C2(H1),X(H6Si2)]\\@


 THE REASON MAN'S BEST FRIEND IS A DOG IS BECAUSE
 HE WAGS HIS TAIL INSTEAD OF HIS TONGUE.
 Job cpu time:       0 days  7 hours 41 minutes 32.0 seconds.
 Elapsed time:       0 days  0 hours 11 minutes 35.9 seconds.
 File lengths (MBytes):  RWF=    302 Int=      0 D2E=      0 Chk=     16 Scr=      1
 Normal termination of Gaussian 16 at Sat Apr 17 05:46:50 2021.
