 Entering Gaussian System, Link 0=/s/ls4/users/knvvv/bin/g16sse/g16
 Input=data/database/M062X--def2-QZVP--MB16-43_BH3.gjf
 Output=data/database/M062X--def2-QZVP--MB16-43_BH3.log
 Initial command:
 /s/ls4/users/knvvv/bin/g16sse/l1.exe "/s/ls4/users/knvvv/bin/scratch/Gau-13103.inp" -scrdir="/s/ls4/users/knvvv/bin/scratch/"
 Entering Link 1 = /s/ls4/users/knvvv/bin/g16sse/l1.exe PID=     13104.
  
 Copyright (c) 1988,1990,1992,1993,1995,1998,2003,2009,2016,
            Gaussian, Inc.  All Rights Reserved.
  
 This is part of the Gaussian(R) 16 program.  It is based on
 the Gaussian(R) 09 system (copyright 2009, Gaussian, Inc.),
 the Gaussian(R) 03 system (copyright 2003, Gaussian, Inc.),
 the Gaussian(R) 98 system (copyright 1998, Gaussian, Inc.),
 the Gaussian(R) 94 system (copyright 1995, Gaussian, Inc.),
 the Gaussian 92(TM) system (copyright 1992, Gaussian, Inc.),
 the Gaussian 90(TM) system (copyright 1990, Gaussian, Inc.),
 the Gaussian 88(TM) system (copyright 1988, Gaussian, Inc.),
 the Gaussian 86(TM) system (copyright 1986, Carnegie Mellon
 University), and the Gaussian 82(TM) system (copyright 1983,
 Carnegie Mellon University). Gaussian is a federally registered
 trademark of Gaussian, Inc.
  
 This software contains proprietary and confidential information,
 including trade secrets, belonging to Gaussian, Inc.
  
 This software is provided under written license and may be
 used, copied, transmitted, or stored only in accord with that
 written license.
  
 The following legend is applicable only to US Government
 contracts under FAR:
  
                    RESTRICTED RIGHTS LEGEND
  
 Use, reproduction and disclosure by the US Government is
 subject to restrictions as set forth in subparagraphs (a)
 and (c) of the Commercial Computer Software - Restricted
 Rights clause in FAR 52.227-19.
  
 Gaussian, Inc.
 340 Quinnipiac St., Bldg. 40, Wallingford CT 06492
  
  
 ---------------------------------------------------------------
 Warning -- This program may not be used in any manner that
 competes with the business of Gaussian, Inc. or will provide
 assistance to any competitor of Gaussian, Inc.  The licensee
 of this program is prohibited from giving any competitor of
 Gaussian, Inc. access to this program.  By using this program,
 the user acknowledges that Gaussian, Inc. is engaged in the
 business of creating and licensing software in the field of
 computational chemistry and represents and warrants to the
 licensee that it is not a competitor of Gaussian, Inc. and that
 it will not use this program in any manner prohibited above.
 ---------------------------------------------------------------
  

 Cite this work as:
 Gaussian 16, Revision A.03,
 M. J. Frisch, G. W. Trucks, H. B. Schlegel, G. E. Scuseria, 
 M. A. Robb, J. R. Cheeseman, G. Scalmani, V. Barone, 
 G. A. Petersson, H. Nakatsuji, X. Li, M. Caricato, A. V. Marenich, 
 J. Bloino, B. G. Janesko, R. Gomperts, B. Mennucci, H. P. Hratchian, 
 J. V. Ortiz, A. F. Izmaylov, J. L. Sonnenberg, D. Williams-Young, 
 F. Ding, F. Lipparini, F. Egidi, J. Goings, B. Peng, A. Petrone, 
 T. Henderson, D. Ranasinghe, V. G. Zakrzewski, J. Gao, N. Rega, 
 G. Zheng, W. Liang, M. Hada, M. Ehara, K. Toyota, R. Fukuda, 
 J. Hasegawa, M. Ishida, T. Nakajima, Y. Honda, O. Kitao, H. Nakai, 
 T. Vreven, K. Throssell, J. A. Montgomery, Jr., J. E. Peralta, 
 F. Ogliaro, M. J. Bearpark, J. J. Heyd, E. N. Brothers, K. N. Kudin, 
 V. N. Staroverov, T. A. Keith, R. Kobayashi, J. Normand, 
 K. Raghavachari, A. P. Rendell, J. C. Burant, S. S. Iyengar, 
 J. Tomasi, M. Cossi, J. M. Millam, M. Klene, C. Adamo, R. Cammi, 
 J. W. Ochterski, R. L. Martin, K. Morokuma, O. Farkas, 
 J. B. Foresman, and D. J. Fox, Gaussian, Inc., Wallingford CT, 2016.
 
 ******************************************
 Gaussian 16:  ES64L-G16RevA.03 25-Dec-2016
                17-Apr-2021 
 ******************************************
 %RWF=temp5_47278,70GB
 %nprocshared=48
 Will use up to   48 processors via shared memory.
 Default route: MaxDisk=80GB
 ----------------------------------------------------------------------
 #P M062X/Def2QZVP Integral=UltraFineGrid SCF=NoSymm Stable=(RExt, Opt)
  IOp(1/33=1)
 ----------------------------------------------------------------------
 1/33=1,38=1,172=1/1;
 2/12=2,17=6,18=5,40=1/2;
 3/5=45,7=101,11=2,25=1,30=1,74=-55,75=-5/1,2,3;
 4/9=2/1;
 5/5=2,38=5/2;
 6/7=2,8=2,9=2,10=2,28=1/1;
 8/6=1,10=90,11=11/1;
 9/8=-3,42=1,46=1/14;
 5/5=2,8=3,17=40,38=5/8(-2);
 6/7=2,8=2,9=2,10=2,28=1/1;
 99/5=1,9=1/99;
 Leave Link    1 at Sat Apr 17 06:58:23 2021, MaxMem=           0 cpu:              11.4 elap:               0.3
 (Enter /s/ls4/users/knvvv/bin/g16sse/l101.exe)
 ONIOM data not found on unit 2.
 ----------------------
 Database calculations.
 ----------------------
 TstMul:  ICh=     0
 TstMul:  Mul=     1
 TstMul:  ICh=     0
 TstMul:  Mul=     1
 Symbolic Z-matrix:
 Charge =  0 Multiplicity = 1
 B                     0.        0.        0. 
 H                    -0.59669   1.0335    0. 
 H                    -0.59669  -1.0335    0. 
 H                     1.19339   0.        0. 
 
 RdStrC is calling ZToCFu for IStruc=1 NZ=     4.
 PrtBox:  NBox=     1 Levels=  1 BoxLen=    8.00 SMaxX=        3.91
          Shift=            1.127586            1.953036            0.000000
 Box      1 Number                   0 centers from      1 to      4:
 After GenITR:
 ITRead=  0  0  0  0
 MicOpt= -1 -1 -1 -1
 ITRead=  0  0  0  0
 MicOpt= -1 -1 -1 -1
 NAtoms=      4 NQM=        4 NQMF=       0 NMMI=      0 NMMIF=      0
                NMic=       0 NMicF=      0.
                    Isotopes and Nuclear Properties:
 (Nuclear quadrupole moments (NQMom) in fm**2, nuclear magnetic moments (NMagM)
  in nuclear magnetons)

  Atom         1           2           3           4
 IAtWgt=          11           1           1           1
 AtmWgt=  11.0093053   1.0078250   1.0078250   1.0078250
 NucSpn=           3           1           1           1
 AtZEff=  -0.0000000  -0.0000000  -0.0000000  -0.0000000
 NQMom=    4.0590000   0.0000000   0.0000000   0.0000000
 NMagM=    2.6886370   2.7928460   2.7928460   2.7928460
 AtZNuc=   5.0000000   1.0000000   1.0000000   1.0000000
 No MM parameters found.
 Leave Link  101 at Sat Apr 17 06:58:23 2021, MaxMem=   104857600 cpu:               9.3 elap:               0.2
 (Enter /s/ls4/users/knvvv/bin/g16sse/l202.exe)
                          Input orientation:                          
 ---------------------------------------------------------------------
 Center     Atomic      Atomic             Coordinates (Angstroms)
 Number     Number       Type             X           Y           Z
 ---------------------------------------------------------------------
      1          5           0        0.000000    0.000000    0.000000
      2          1           0       -0.596693    1.033502    0.000000
      3          1           0       -0.596693   -1.033502    0.000000
      4          1           0        1.193386    0.000000    0.000000
 ---------------------------------------------------------------------
                    Distance matrix (angstroms):
                    1          2          3          4
     1  B    0.000000
     2  H    1.193386   0.000000
     3  H    1.193386   2.067005   0.000000
     4  H    1.193386   2.067005   2.067005   0.000000
 Stoichiometry    BH3
 Framework group  D3H[O(B),3C2(H)]
 Deg. of freedom     1
 Full point group                 D3H     NOp  12
 Largest Abelian subgroup         C2V     NOp   4
 Largest concise Abelian subgroup C2      NOp   2
                         Standard orientation:                         
 ---------------------------------------------------------------------
 Center     Atomic      Atomic             Coordinates (Angstroms)
 Number     Number       Type             X           Y           Z
 ---------------------------------------------------------------------
      1          5           0       -0.000000    0.000000    0.000000
      2          1           0        0.000000    1.193386    0.000000
      3          1           0        1.033502   -0.596693    0.000000
      4          1           0       -1.033502   -0.596693    0.000000
 ---------------------------------------------------------------------
 Rotational constants (GHZ):         234.7357151         234.7357151         117.3678576
 Leave Link  202 at Sat Apr 17 06:58:23 2021, MaxMem=   104857600 cpu:              10.3 elap:               0.2
 (Enter /s/ls4/users/knvvv/bin/g16sse/l301.exe)
 Standard basis: def2QZVP (5D, 7F)
 Ernie: Thresh=  0.10000D-02 Tol=  0.10000D-05 Strict=F.
 There are    72 symmetry adapted cartesian basis functions of A1  symmetry.
 There are    22 symmetry adapted cartesian basis functions of A2  symmetry.
 There are    48 symmetry adapted cartesian basis functions of B1  symmetry.
 There are    35 symmetry adapted cartesian basis functions of B2  symmetry.
 There are    57 symmetry adapted basis functions of A1  symmetry.
 There are    20 symmetry adapted basis functions of A2  symmetry.
 There are    40 symmetry adapted basis functions of B1  symmetry.
 There are    30 symmetry adapted basis functions of B2  symmetry.
   147 basis functions,   206 primitive gaussians,   177 cartesian basis functions
     4 alpha electrons        4 beta electrons
       nuclear repulsion energy         7.4194121219 Hartrees.
 IExCor= 4336 DFT=T Ex+Corr=M062X ExCW=0 ScaHFX=  0.540000
 ScaDFX=  1.000000  1.000000  1.000000  1.000000 ScalE2=  1.000000  1.000000
 IRadAn=      5 IRanWt=     -1 IRanGd=            0 ICorTp=0 IEmpDi=  4
 NAtoms=    4 NActive=    4 NUniq=    2 SFac= 4.00D+00 NAtFMM=   60 NAOKFM=F Big=F
 Integral buffers will be    131072 words long.
 Raffenetti 2 integral format.
 Two-electron integral symmetry is turned on.
 Leave Link  301 at Sat Apr 17 06:58:24 2021, MaxMem=   104857600 cpu:               7.2 elap:               0.2
 (Enter /s/ls4/users/knvvv/bin/g16sse/l302.exe)
 NPDir=0 NMtPBC=     1 NCelOv=     1 NCel=       1 NClECP=     1 NCelD=      1
         NCelK=      1 NCelE2=     1 NClLst=     1 CellRange=     0.0.
 One-electron integrals computed using PRISM.
 One-electron integral symmetry used in STVInt
 PrsmSu:  requested number of processors reduced to:   4 ShMem   1 Linda.
 PrsmSu:  requested number of processors reduced to:  21 ShMem   1 Linda.
  12 Symmetry operations used in ECPInt.
 ECPInt:  NShTT=    1128 NPrTT=    2403 LenC2=    1129 LenP2D=    2322.
 LDataN:  DoStor=T MaxTD1= 8 Len=  415
 Number of processors reduced to  38 by ecpmxn.
 NBasis=   147 RedAO= T EigKep=  2.05D-04  NBF=    57    20    40    30
 NBsUse=   147 1.00D-06 EigRej= -1.00D+00 NBFU=    57    20    40    30
 Precomputing XC quadrature grid using
 IXCGrd= 4 IRadAn=           5 IRanWt=          -1 IRanGd=           0 AccXCQ= 0.00D+00.
 Generated NRdTot=       0 NPtTot=           0 NUsed=           0 NTot=          32
 NSgBfM=   177   177   177   177   177 MxSgAt=     4 MxSgA2=     4.
 Leave Link  302 at Sat Apr 17 06:58:43 2021, MaxMem=   104857600 cpu:             889.0 elap:              19.1
 (Enter /s/ls4/users/knvvv/bin/g16sse/l303.exe)
 DipDrv:  MaxL=1.
 Leave Link  303 at Sat Apr 17 06:58:43 2021, MaxMem=   104857600 cpu:              25.0 elap:               0.6
 (Enter /s/ls4/users/knvvv/bin/g16sse/l401.exe)
 SCF N**3 symmetry information disabled.
 ExpMin= 4.99D-02 ExpMax= 4.64D+04 ExpMxC= 4.48D+02 IAcc=3 IRadAn=         5 AccDes= 0.00D+00
 Harris functional with IExCor= 1009 and IRadAn=       5 diagonalized for initial guess.
 HarFok:  IExCor= 1009 AccDes= 0.00D+00 IRadAn=         5 IDoV= 1 UseB2=F ITyADJ=14
 ICtDFT=  3500011 ScaDFX=  1.000000  1.000000  1.000000  1.000000
 FoFCou: FMM=F IPFlag=           0 FMFlag=      100000 FMFlg1=           0
         NFxFlg=           0 DoJE=T BraDBF=F KetDBF=T FulRan=T
         wScrn=  0.000000 ICntrl=       500 IOpCl=  0 I1Cent=   200000004 NGrid=           0
         NMat0=    1 NMatS0=      1 NMatT0=    0 NMatD0=    1 NMtDS0=    0 NMtDT0=    0
 Petite list used in FoFCou.
 CoulSu:  requested number of processors reduced to:  21 ShMem   1 Linda.
 CoulSu:  requested number of processors reduced to:  21 ShMem   1 Linda.
 CoulSu:  requested number of processors reduced to:  21 ShMem   1 Linda.
 CoulSu:  requested number of processors reduced to:  21 ShMem   1 Linda.
 Harris En= -26.5959220618663    
 JPrj=0 DoOrth=F DoCkMO=F.
 Initial guess orbital symmetries:
       Occupied  (A1') (A1') (E') (E')
       Virtual   (A2") (A1') (E') (E') (E') (E') (A2") (A1') (E")
                 (E") (E') (E') (A1') (A1') (E') (E') (A2") (E')
                 (E') (A2') (E") (E") (A2") (A1') (E') (E') (A1')
                 (E') (E') (E") (E") (A1') (E') (E') (E') (E')
                 (A2") (E") (E") (A1') (A2') (E') (E') (A2") (A1")
                 (A1') (E') (E') (E') (E') (A2") (E") (E") (E')
                 (E') (E") (E") (A2') (A1') (A1') (A2") (E") (E")
                 (E') (E') (A2') (E') (E') (A1') (E') (E') (E")
                 (E") (A1') (E') (E') (E") (E") (A2") (A1") (E')
                 (E') (A1') (E') (E') (A1') (E") (E") (A2') (A2")
                 (A1') (E') (E') (A2') (E") (E") (E') (E') (A2")
                 (E') (E') (E") (E") (E') (E') (A1') (A2") (A1')
                 (E") (E") (E') (E') (E') (E') (A1') (A2') (A1")
                 (A1") (E') (E') (E") (E") (E') (E') (A2") (A1')
                 (E") (E") (A2') (A2") (E") (E") (E') (E') (A1')
                 (A2') (E') (E') (E') (E') (A1') (A1') (A1')
 The electronic state of the initial guess is 1-A1'.
 Leave Link  401 at Sat Apr 17 06:58:51 2021, MaxMem=   104857600 cpu:             324.8 elap:               7.3
 (Enter /s/ls4/users/knvvv/bin/g16sse/l502.exe)
 Integral symmetry usage will be decided dynamically.
 Closed shell SCF:
 Using DIIS extrapolation, IDIIS=  1040.
 NGot=   104857600 LenX=   104783413 LenY=   104751643
 Requested convergence on RMS density matrix=1.00D-08 within 128 cycles.
 Requested convergence on MAX density matrix=1.00D-06.
 Requested convergence on             energy=1.00D-06.
 No special actions if energy rises.
 Fock matrices will be formed incrementally for  20 cycles.

 Cycle   1  Pass 1  IDiag  1:
 FoFJK:  IHMeth= 1 ICntrl=       0 DoSepK=F KAlg= 0 I1Cent=           0 FoldK=F
 IRaf= 990000000 NMat=       1 IRICut=       1 DoRegI=T DoRafI=F ISym2E= 1 IDoP0=0 IntGTp=1.
 FoFCou: FMM=F IPFlag=           0 FMFlag=      100000 FMFlg1=           0
         NFxFlg=           0 DoJE=F BraDBF=F KetDBF=F FulRan=T
         wScrn=  0.000000 ICntrl=         0 IOpCl=  0 I1Cent=           0 NGrid=           0
         NMat0=    1 NMatS0=      1 NMatT0=    0 NMatD0=    1 NMtDS0=    0 NMtDT0=    0
 Petite list used in FoFCou.
 CoulSu:  requested number of processors reduced to:  21 ShMem   1 Linda.
 E= -26.5791060666639    
 DIIS: error= 2.78D-02 at cycle   1 NSaved=   1.
 NSaved= 1 IEnMin= 1 EnMin= -26.5791060666639     IErMin= 1 ErrMin= 2.78D-02
 ErrMax= 2.78D-02  0.00D+00 EMaxC= 1.00D-01 BMatC= 2.35D-02 BMatP= 2.35D-02
 IDIUse=3 WtCom= 7.22D-01 WtEn= 2.78D-01
 Coeff-Com:  0.100D+01
 Coeff-En:   0.100D+01
 Coeff:      0.100D+01
 Gap=     0.390 Goal=   None    Shift=    0.000
 GapD=    0.390 DampG=1.000 DampE=0.500 DampFc=0.5000 IDamp=-1.
 Damping current iteration by 5.00D-01
 RMSDP=1.01D-03 MaxDP=2.16D-02              OVMax= 7.63D-02

 Cycle   2  Pass 1  IDiag  1:
 RMSU=  4.79D-04    CP:  9.68D-01
 CoulSu:  requested number of processors reduced to:  21 ShMem   1 Linda.
 E= -26.5898366190774     Delta-E=       -0.010730552414 Rises=F Damp=T
 DIIS: error= 1.37D-02 at cycle   2 NSaved=   2.
 NSaved= 2 IEnMin= 2 EnMin= -26.5898366190774     IErMin= 2 ErrMin= 1.37D-02
 ErrMax= 1.37D-02  0.00D+00 EMaxC= 1.00D-01 BMatC= 4.51D-03 BMatP= 2.35D-02
 IDIUse=3 WtCom= 8.63D-01 WtEn= 1.37D-01
 Coeff-Com: -0.643D+00 0.164D+01
 Coeff-En:   0.000D+00 0.100D+01
 Coeff:     -0.556D+00 0.156D+01
 Gap=     0.376 Goal=   None    Shift=    0.000
 RMSDP=5.74D-04 MaxDP=1.64D-02 DE=-1.07D-02 OVMax= 2.15D-02

 Cycle   3  Pass 1  IDiag  1:
 RMSU=  2.51D-04    CP:  9.47D-01  2.06D+00
 CoulSu:  requested number of processors reduced to:  21 ShMem   1 Linda.
 E= -26.5991601343839     Delta-E=       -0.009323515307 Rises=F Damp=F
 DIIS: error= 1.19D-03 at cycle   3 NSaved=   3.
 NSaved= 3 IEnMin= 3 EnMin= -26.5991601343839     IErMin= 3 ErrMin= 1.19D-03
 ErrMax= 1.19D-03  0.00D+00 EMaxC= 1.00D-01 BMatC= 4.79D-05 BMatP= 4.51D-03
 IDIUse=3 WtCom= 9.88D-01 WtEn= 1.19D-02
 Coeff-Com: -0.119D+00 0.257D+00 0.862D+00
 Coeff-En:   0.000D+00 0.000D+00 0.100D+01
 Coeff:     -0.118D+00 0.254D+00 0.864D+00
 Gap=     0.374 Goal=   None    Shift=    0.000
 RMSDP=5.17D-05 MaxDP=3.95D-03 DE=-9.32D-03 OVMax= 2.95D-03

 Cycle   4  Pass 1  IDiag  1:
 RMSU=  2.87D-05    CP:  9.45D-01  2.05D+00  8.37D-01
 CoulSu:  requested number of processors reduced to:  21 ShMem   1 Linda.
 E= -26.5992116077977     Delta-E=       -0.000051473414 Rises=F Damp=F
 DIIS: error= 9.14D-05 at cycle   4 NSaved=   4.
 NSaved= 4 IEnMin= 4 EnMin= -26.5992116077977     IErMin= 4 ErrMin= 9.14D-05
 ErrMax= 9.14D-05  0.00D+00 EMaxC= 1.00D-01 BMatC= 2.90D-07 BMatP= 4.79D-05
 IDIUse=1 WtCom= 1.00D+00 WtEn= 0.00D+00
 Coeff-Com:  0.927D-02-0.179D-01-0.210D-02 0.101D+01
 Coeff:      0.927D-02-0.179D-01-0.210D-02 0.101D+01
 Gap=     0.374 Goal=   None    Shift=    0.000
 RMSDP=1.11D-05 MaxDP=1.05D-03 DE=-5.15D-05 OVMax= 1.76D-04

 Cycle   5  Pass 1  IDiag  1:
 RMSU=  3.52D-06    CP:  9.45D-01  2.04D+00  8.17D-01  1.30D+00
 CoulSu:  requested number of processors reduced to:  21 ShMem   1 Linda.
 E= -26.5992118854946     Delta-E=       -0.000000277697 Rises=F Damp=F
 DIIS: error= 5.94D-06 at cycle   5 NSaved=   5.
 NSaved= 5 IEnMin= 5 EnMin= -26.5992118854946     IErMin= 5 ErrMin= 5.94D-06
 ErrMax= 5.94D-06  0.00D+00 EMaxC= 1.00D-01 BMatC= 2.18D-09 BMatP= 2.90D-07
 IDIUse=1 WtCom= 1.00D+00 WtEn= 0.00D+00
 Coeff-Com:  0.827D-03-0.177D-02-0.238D-03 0.806D-01 0.921D+00
 Coeff:      0.827D-03-0.177D-02-0.238D-03 0.806D-01 0.921D+00
 Gap=     0.374 Goal=   None    Shift=    0.000
 RMSDP=1.86D-06 MaxDP=6.56D-05 DE=-2.78D-07 OVMax= 1.65D-05

 Cycle   6  Pass 1  IDiag  1:
 RMSU=  8.79D-07    CP:  9.45D-01  2.04D+00  8.20D-01  1.31D+00  1.13D+00
 CoulSu:  requested number of processors reduced to:  21 ShMem   1 Linda.
 E= -26.5992118870757     Delta-E=       -0.000000001581 Rises=F Damp=F
 DIIS: error= 7.18D-07 at cycle   6 NSaved=   6.
 NSaved= 6 IEnMin= 6 EnMin= -26.5992118870757     IErMin= 6 ErrMin= 7.18D-07
 ErrMax= 7.18D-07  0.00D+00 EMaxC= 1.00D-01 BMatC= 3.71D-11 BMatP= 2.18D-09
 IDIUse=1 WtCom= 1.00D+00 WtEn= 0.00D+00
 Coeff-Com: -0.168D-04 0.393D-04 0.662D-05-0.861D-02-0.692D-01 0.108D+01
 Coeff:     -0.168D-04 0.393D-04 0.662D-05-0.861D-02-0.692D-01 0.108D+01
 Gap=     0.374 Goal=   None    Shift=    0.000
 RMSDP=2.77D-07 MaxDP=1.31D-05 DE=-1.58D-09 OVMax= 3.96D-06

 Cycle   7  Pass 1  IDiag  1:
 RMSU=  2.95D-08    CP:  9.44D-01  2.04D+00  8.20D-01  1.31D+00  1.17D+00
                    CP:  1.16D+00
 CoulSu:  requested number of processors reduced to:  21 ShMem   1 Linda.
 E= -26.5992118871471     Delta-E=       -0.000000000071 Rises=F Damp=F
 DIIS: error= 1.16D-07 at cycle   7 NSaved=   7.
 NSaved= 7 IEnMin= 7 EnMin= -26.5992118871471     IErMin= 7 ErrMin= 1.16D-07
 ErrMax= 1.16D-07  0.00D+00 EMaxC= 1.00D-01 BMatC= 4.94D-13 BMatP= 3.71D-11
 IDIUse=1 WtCom= 1.00D+00 WtEn= 0.00D+00
 Coeff-Com: -0.641D-05 0.143D-04 0.272D-04-0.121D-03-0.589D-02-0.910D-01
 Coeff-Com:  0.110D+01
 Coeff:     -0.641D-05 0.143D-04 0.272D-04-0.121D-03-0.589D-02-0.910D-01
 Coeff:      0.110D+01
 Gap=     0.374 Goal=   None    Shift=    0.000
 RMSDP=2.90D-08 MaxDP=1.55D-06 DE=-7.14D-11 OVMax= 6.40D-07

 Cycle   8  Pass 1  IDiag  1:
 RMSU=  6.27D-09    CP:  9.44D-01  2.04D+00  8.20D-01  1.31D+00  1.17D+00
                    CP:  1.17D+00  1.11D+00
 CoulSu:  requested number of processors reduced to:  21 ShMem   1 Linda.
 E= -26.5992118871483     Delta-E=       -0.000000000001 Rises=F Damp=F
 DIIS: error= 1.18D-08 at cycle   8 NSaved=   8.
 NSaved= 8 IEnMin= 8 EnMin= -26.5992118871483     IErMin= 8 ErrMin= 1.18D-08
 ErrMax= 1.18D-08  0.00D+00 EMaxC= 1.00D-01 BMatC= 5.53D-15 BMatP= 4.94D-13
 IDIUse=1 WtCom= 1.00D+00 WtEn= 0.00D+00
 Coeff-Com:  0.442D-06-0.101D-05-0.158D-05-0.364D-04 0.122D-02 0.105D-01
 Coeff-Com: -0.172D+00 0.116D+01
 Coeff:      0.442D-06-0.101D-05-0.158D-05-0.364D-04 0.122D-02 0.105D-01
 Coeff:     -0.172D+00 0.116D+01
 Gap=     0.374 Goal=   None    Shift=    0.000
 RMSDP=2.74D-09 MaxDP=1.34D-07 DE=-1.26D-12 OVMax= 6.13D-08

 SCF Done:  E(RM062X) =  -26.5992118871     A.U. after    8 cycles
            NFock=  8  Conv=0.27D-08     -V/T= 2.0063
 KE= 2.643160489839D+01 PE=-7.550386637666D+01 EE= 1.505363746927D+01
 Leave Link  502 at Sat Apr 17 07:01:04 2021, MaxMem=   104857600 cpu:            6172.4 elap:             133.6
 (Enter /s/ls4/users/knvvv/bin/g16sse/l601.exe)
 Copying SCF densities to generalized density rwf, IOpCl= 0 IROHF=0.

 **********************************************************************

            Population analysis using the SCF density.

 **********************************************************************

 Orbital symmetries:
       Occupied  (A1') (A1') (E') (E')
       Virtual   (A2") (E') (E') (A1') (A2") (E') (E') (A1') (E")
                 (E") (E') (E') (A1') (A1') (E') (E') (A2") (E')
                 (E') (A2') (E") (E") (A2") (A1') (E') (E') (A1')
                 (E') (E') (E") (E") (A1') (E') (E') (E') (E')
                 (A2") (E") (E") (A1') (A2') (E') (E') (A2") (A1")
                 (A1') (E') (E') (E') (E') (A2") (E") (E") (E')
                 (E') (E") (E") (A2') (A1') (A1') (A2") (E") (E")
                 (E') (E') (A2') (A1') (E') (E') (E') (E') (E")
                 (E") (A1') (A2") (E') (E') (E") (E") (A1") (E')
                 (E') (A1') (E') (E') (A1') (E") (E") (A2") (A2')
                 (E') (E') (A1') (A2') (E") (E") (E') (E') (A2")
                 (E') (E') (E") (E") (E') (E') (A2") (A1') (E')
                 (E') (E") (E") (A1') (E') (E') (A2') (A1') (A1")
                 (A1") (E') (E') (E") (E") (A2") (A1') (E') (E')
                 (E") (E") (A2") (A2') (E") (E") (E') (E') (A1')
                 (A2') (E') (E') (E') (E') (A1') (A1') (A1')
 The electronic state is 1-A1'.
 Alpha  occ. eigenvalues --   -7.06346  -0.59002  -0.41416  -0.41416
 Alpha virt. eigenvalues --   -0.04010   0.07041   0.07041   0.09343   0.11073
 Alpha virt. eigenvalues --    0.15086   0.15086   0.17998   0.30232   0.30232
 Alpha virt. eigenvalues --    0.33373   0.33373   0.36127   0.42830   0.45191
 Alpha virt. eigenvalues --    0.45191   0.53341   0.54650   0.54650   0.60421
 Alpha virt. eigenvalues --    0.74356   0.74356   0.75810   0.86479   0.94053
 Alpha virt. eigenvalues --    0.94053   1.04136   1.07565   1.07565   1.12109
 Alpha virt. eigenvalues --    1.12109   1.14502   1.19749   1.19749   1.23794
 Alpha virt. eigenvalues --    1.23794   1.27438   1.35428   1.35428   1.36054
 Alpha virt. eigenvalues --    1.43682   1.53602   1.53602   1.84996   1.95686
 Alpha virt. eigenvalues --    2.02398   2.20397   2.20397   2.32259   2.32259
 Alpha virt. eigenvalues --    2.33864   2.35562   2.35562   2.51793   2.51793
 Alpha virt. eigenvalues --    2.52497   2.52497   2.58229   2.60753   2.71096
 Alpha virt. eigenvalues --    2.86183   2.91473   2.91473   2.91827   2.91827
 Alpha virt. eigenvalues --    3.02193   3.09926   3.14618   3.14618   3.31557
 Alpha virt. eigenvalues --    3.31557   3.47268   3.47268   3.49964   3.56723
 Alpha virt. eigenvalues --    3.57612   3.57612   3.60945   3.60945   3.88158
 Alpha virt. eigenvalues --    4.01567   4.01567   4.04701   4.29806   4.29806
 Alpha virt. eigenvalues --    4.41540   4.55811   4.55811   4.68259   4.71324
 Alpha virt. eigenvalues --    5.02423   5.02423   5.05496   5.67551   5.69906
 Alpha virt. eigenvalues --    5.69906   5.94494   5.94494   5.98973   6.40836
 Alpha virt. eigenvalues --    6.40836   6.42039   6.42039   6.69302   6.69302
 Alpha virt. eigenvalues --    6.74803   6.77524   7.00463   7.00463   7.00496
 Alpha virt. eigenvalues --    7.00496   7.02893   7.24548   7.24548   7.38317
 Alpha virt. eigenvalues --    7.46003   7.52206   7.69868   7.84057   7.84057
 Alpha virt. eigenvalues --    7.96046   7.96046   8.10574   8.11946   8.14629
 Alpha virt. eigenvalues --    8.14629   8.20667   8.20667   8.47544   8.53792
 Alpha virt. eigenvalues --    8.54079   8.54079   8.80534   8.80534   9.08259
 Alpha virt. eigenvalues --    9.08884   9.29601   9.29601   9.47778   9.47778
 Alpha virt. eigenvalues --   10.89055  19.75230 101.17732
          Condensed to atoms (all electrons):
               1          2          3          4
     1  B    3.906514   0.420128   0.420128   0.420128
     2  H    0.420128   0.566532  -0.021147  -0.021147
     3  H    0.420128  -0.021147   0.566532  -0.021147
     4  H    0.420128  -0.021147  -0.021147   0.566532
 Mulliken charges:
               1
     1  B   -0.166899
     2  H    0.055633
     3  H    0.055633
     4  H    0.055633
 Sum of Mulliken charges =   0.00000
 Mulliken charges with hydrogens summed into heavy atoms:
               1
     1  B    0.000000
 Electronic spatial extent (au):  <R**2>=             34.4917
 Charge=              0.0000 electrons
 Dipole moment (field-independent basis, Debye):
    X=             -0.0000    Y=             -0.0000    Z=             -0.0000  Tot=              0.0000
 Quadrupole moment (field-independent basis, Debye-Ang):
   XX=             -9.3238   YY=             -9.3238   ZZ=             -7.2231
   XY=             -0.0000   XZ=             -0.0000   YZ=             -0.0000
 Traceless Quadrupole moment (field-independent basis, Debye-Ang):
   XX=             -0.7002   YY=             -0.7002   ZZ=              1.4005
   XY=             -0.0000   XZ=             -0.0000   YZ=             -0.0000
 Octapole moment (field-independent basis, Debye-Ang**2):
  XXX=              0.0000  YYY=              0.1161  ZZZ=             -0.0000  XYY=              0.0000
  XXY=             -0.1161  XXZ=             -0.0000  XZZ=              0.0000  YZZ=              0.0000
  YYZ=             -0.0000  XYZ=              0.0000
 Hexadecapole moment (field-independent basis, Debye-Ang**3):
 XXXX=            -24.6606 YYYY=            -24.6606 ZZZZ=             -7.5192 XXXY=              0.0000
 XXXZ=             -0.0000 YYYX=              0.0000 YYYZ=              0.0000 ZZZX=             -0.0000
 ZZZY=             -0.0000 XXYY=             -8.2202 XXZZ=             -5.6572 YYZZ=             -5.6572
 XXYZ=             -0.0000 YYXZ=             -0.0000 ZZXY=              0.0000
 N-N= 7.419412121856D+00 E-N=-7.550386647317D+01  KE= 2.643160489839D+01
 PrsmSu:  requested number of processors reduced to:  21 ShMem   1 Linda.
 No NMR shielding tensors so no spin-rotation constants.
 Leave Link  601 at Sat Apr 17 07:01:10 2021, MaxMem=   104857600 cpu:             253.2 elap:               5.5
 (Enter /s/ls4/users/knvvv/bin/g16sse/l801.exe)
 DoSCS=F DFT=T ScalE2(SS,OS)=  1.000000  1.000000
 Range of M.O.s used for correlation:     1   147
 NBasis=   147 NAE=     4 NBE=     4 NFC=     0 NFV=     0
 NROrb=    147 NOA=     4 NOB=     4 NVA=   143 NVB=   143

 **** Warning!!: The largest alpha MO coefficient is  0.25434183D+02

 Leave Link  801 at Sat Apr 17 07:01:10 2021, MaxMem=   104857600 cpu:               4.3 elap:               0.1
 (Enter /s/ls4/users/knvvv/bin/g16sse/l914.exe)
 RHF ground state
 Doing stability rather than CIS.
 Two-electron integrals replicated using symmetry.
 MDV=   104857600 DFT=T DoStab=T Mixed=T DoRPA=F DoScal=F NonHer=F
 Making orbital integer symmetry assigments:
 Orbital symmetries:
       Occupied  (A1') (A1') (E') (E')
       Virtual   (A2") (E') (E') (A1') (A2") (E') (E') (A1') (E")
                 (E") (E') (E') (A1') (A1') (E') (E') (A2") (E')
                 (E') (A2') (E") (E") (A2") (A1') (E') (E') (A1')
                 (E') (E') (E") (E") (A1') (E') (E') (E') (E')
                 (A2") (E") (E") (A1') (A2') (E') (E') (A2") (A1")
                 (A1') (E') (E') (E') (E') (A2") (E") (E") (E')
                 (E') (E") (E") (A2') (A1') (A1') (A2") (E") (E")
                 (E') (E') (A2') (A1') (E') (E') (E') (E') (E")
                 (E") (A1') (A2") (E') (E') (E") (E") (A1") (E')
                 (E') (A1') (E') (E') (A1') (E") (E") (A2") (A2')
                 (E') (E') (A1') (A2') (E") (E") (E') (E') (A2")
                 (E') (E') (E") (E") (E') (E') (A2") (A1') (E')
                 (E') (E") (E") (A1') (E') (E') (A2') (A1') (A1")
                 (A1") (E') (E') (E") (E") (A2") (A1') (E') (E')
                 (E") (E") (A2") (A2') (E") (E") (E') (E') (A1')
                 (A2') (E') (E') (E') (E') (A1') (A1') (A1')
    24 initial guesses have been made.
 Convergence on wavefunction:    0.001000000000000
 Davidson Disk Diagonalization:  ConvIn= 1.00D-03 SkipCon=T Conv= 1.00D-03.
 Max sub-space:  2000 roots to seek:    24 dimension of matrix:         1144
 Iteration     1 Dimension    24 NMult     0 NNew     24
 Estimated number of processors is:   20
 CISAX will form     1 AO SS matrices at one time.
 NMat=     1 NSing=     1 JSym2X= 2.
 FoFJK:  IHMeth= 1 ICntrl=       0 DoSepK=F KAlg= 0 I1Cent=           0 FoldK=F
 IRaf= 990000000 NMat=       1 IRICut=       1 DoRegI=T DoRafI=F ISym2E= 2 IDoP0=0 IntGTp=1.
 FoFCou: FMM=F IPFlag=           0 FMFlag=      100000 FMFlg1=           0
         NFxFlg=           0 DoJE=F BraDBF=F KetDBF=F FulRan=T
         wScrn=  0.000000 ICntrl=         0 IOpCl=  0 I1Cent=           0 NGrid=           0
         NMat0=    1 NMatS0=      1 NMatT0=    0 NMatD0=    1 NMtDS0=    0 NMtDT0=    0
 Integrals replicated using symmetry in FoFCou.
 CoulSu:  requested number of processors reduced to:  20 ShMem   1 Linda.
 NMat=     1 NSing=     1 JSym2X= 2.
 CoulSu:  requested number of processors reduced to:  20 ShMem   1 Linda.
 NMat=     1 NSing=     1 JSym2X= 2.
 CoulSu:  requested number of processors reduced to:  20 ShMem   1 Linda.
 NMat=     1 NSing=     1 JSym2X= 2.
 CoulSu:  requested number of processors reduced to:  20 ShMem   1 Linda.
 NMat=     1 NSing=     1 JSym2X= 2.
 CoulSu:  requested number of processors reduced to:  20 ShMem   1 Linda.
 NMat=     1 NSing=     1 JSym2X= 2.
 CoulSu:  requested number of processors reduced to:  20 ShMem   1 Linda.
 NMat=     1 NSing=     1 JSym2X= 2.
 CoulSu:  requested number of processors reduced to:  20 ShMem   1 Linda.
 NMat=     1 NSing=     1 JSym2X= 2.
 CoulSu:  requested number of processors reduced to:  20 ShMem   1 Linda.
 NMat=     1 NSing=     1 JSym2X= 2.
 CoulSu:  requested number of processors reduced to:  20 ShMem   1 Linda.
 NMat=     1 NSing=     1 JSym2X= 2.
 CoulSu:  requested number of processors reduced to:  20 ShMem   1 Linda.
 NMat=     1 NSing=     1 JSym2X= 2.
 CoulSu:  requested number of processors reduced to:  20 ShMem   1 Linda.
 NMat=     1 NSing=     1 JSym2X= 2.
 CoulSu:  requested number of processors reduced to:  20 ShMem   1 Linda.
 NMat=     1 NSing=     0 JSym2X= 2.
 CoulSu:  requested number of processors reduced to:  20 ShMem   1 Linda.
 NMat=     1 NSing=     0 JSym2X= 2.
 CoulSu:  requested number of processors reduced to:  20 ShMem   1 Linda.
 NMat=     1 NSing=     0 JSym2X= 2.
 CoulSu:  requested number of processors reduced to:  20 ShMem   1 Linda.
 NMat=     1 NSing=     0 JSym2X= 2.
 CoulSu:  requested number of processors reduced to:  20 ShMem   1 Linda.
 NMat=     1 NSing=     0 JSym2X= 2.
 CoulSu:  requested number of processors reduced to:  20 ShMem   1 Linda.
 NMat=     1 NSing=     0 JSym2X= 2.
 CoulSu:  requested number of processors reduced to:  20 ShMem   1 Linda.
 NMat=     1 NSing=     0 JSym2X= 2.
 CoulSu:  requested number of processors reduced to:  20 ShMem   1 Linda.
 NMat=     1 NSing=     0 JSym2X= 2.
 CoulSu:  requested number of processors reduced to:  20 ShMem   1 Linda.
 NMat=     1 NSing=     0 JSym2X= 2.
 CoulSu:  requested number of processors reduced to:  20 ShMem   1 Linda.
 NMat=     1 NSing=     0 JSym2X= 2.
 CoulSu:  requested number of processors reduced to:  20 ShMem   1 Linda.
 NMat=     1 NSing=     0 JSym2X= 2.
 CoulSu:  requested number of processors reduced to:  20 ShMem   1 Linda.
 NMat=     1 NSing=     0 JSym2X= 2.
 CoulSu:  requested number of processors reduced to:  20 ShMem   1 Linda.
 New state      1 was old state      4
 Excitation Energies [eV] at current iteration:
 Root      1 :     5.192711959147511
 Root      2 :     5.192787140702880
 Root      3 :     6.292079923653045
 Root      4 :     6.292217661102939
 Root      5 :     9.257671942218110
 Root      6 :    10.595662157239050
 Root      7 :    10.595811736848140
 Root      8 :    10.606562381944830
 Root      9 :    10.649004239001710
 Root     10 :    10.884577700598850
 Root     11 :    10.923631142250060
 Root     12 :    11.107794346523180
 Root     13 :    11.214035103541540
 Root     14 :    11.217263937762600
 Root     15 :    11.266467254680730
 Root     16 :    11.321601323036300
 Root     17 :    11.557192461643410
 Root     18 :    11.557205701289140
 Root     19 :    11.578159562685600
 Root     20 :    11.578205953261800
 Root     21 :    11.964144239458270
 Root     22 :    12.181382643399110
 Root     23 :    12.935943450337690
 Root     24 :    14.027657254661940
 Iteration     2 Dimension    48 NMult    24 NNew     24
 Estimated number of processors is:   20
 CISAX will form     1 AO SS matrices at one time.
 NMat=     1 NSing=     1 JSym2X= 2.
 CoulSu:  requested number of processors reduced to:  20 ShMem   1 Linda.
 NMat=     1 NSing=     1 JSym2X= 2.
 CoulSu:  requested number of processors reduced to:  20 ShMem   1 Linda.
 NMat=     1 NSing=     1 JSym2X= 2.
 CoulSu:  requested number of processors reduced to:  20 ShMem   1 Linda.
 NMat=     1 NSing=     1 JSym2X= 2.
 CoulSu:  requested number of processors reduced to:  20 ShMem   1 Linda.
 NMat=     1 NSing=     1 JSym2X= 2.
 CoulSu:  requested number of processors reduced to:  20 ShMem   1 Linda.
 NMat=     1 NSing=     1 JSym2X= 2.
 CoulSu:  requested number of processors reduced to:  20 ShMem   1 Linda.
 NMat=     1 NSing=     1 JSym2X= 2.
 CoulSu:  requested number of processors reduced to:  20 ShMem   1 Linda.
 NMat=     1 NSing=     1 JSym2X= 2.
 CoulSu:  requested number of processors reduced to:  20 ShMem   1 Linda.
 NMat=     1 NSing=     1 JSym2X= 2.
 CoulSu:  requested number of processors reduced to:  20 ShMem   1 Linda.
 NMat=     1 NSing=     1 JSym2X= 2.
 CoulSu:  requested number of processors reduced to:  20 ShMem   1 Linda.
 NMat=     1 NSing=     1 JSym2X= 2.
 CoulSu:  requested number of processors reduced to:  20 ShMem   1 Linda.
 NMat=     1 NSing=     1 JSym2X= 2.
 CoulSu:  requested number of processors reduced to:  20 ShMem   1 Linda.
 NMat=     1 NSing=     0 JSym2X= 2.
 CoulSu:  requested number of processors reduced to:  20 ShMem   1 Linda.
 NMat=     1 NSing=     0 JSym2X= 2.
 CoulSu:  requested number of processors reduced to:  20 ShMem   1 Linda.
 NMat=     1 NSing=     0 JSym2X= 2.
 CoulSu:  requested number of processors reduced to:  20 ShMem   1 Linda.
 NMat=     1 NSing=     0 JSym2X= 2.
 CoulSu:  requested number of processors reduced to:  20 ShMem   1 Linda.
 NMat=     1 NSing=     0 JSym2X= 2.
 CoulSu:  requested number of processors reduced to:  20 ShMem   1 Linda.
 NMat=     1 NSing=     0 JSym2X= 2.
 CoulSu:  requested number of processors reduced to:  20 ShMem   1 Linda.
 NMat=     1 NSing=     0 JSym2X= 2.
 CoulSu:  requested number of processors reduced to:  20 ShMem   1 Linda.
 NMat=     1 NSing=     0 JSym2X= 2.
 CoulSu:  requested number of processors reduced to:  20 ShMem   1 Linda.
 NMat=     1 NSing=     0 JSym2X= 2.
 CoulSu:  requested number of processors reduced to:  20 ShMem   1 Linda.
 NMat=     1 NSing=     0 JSym2X= 2.
 CoulSu:  requested number of processors reduced to:  20 ShMem   1 Linda.
 NMat=     1 NSing=     0 JSym2X= 2.
 CoulSu:  requested number of processors reduced to:  20 ShMem   1 Linda.
 NMat=     1 NSing=     0 JSym2X= 2.
 CoulSu:  requested number of processors reduced to:  20 ShMem   1 Linda.
 Root      1 not converged, maximum delta is    0.038317734521473
 Excitation Energies [eV] at current iteration:
 Root      1 :     5.013710944813951   Change is   -0.179001014333559
 Root      2 :     5.013803047532592   Change is   -0.178984093170287
 Root      3 :     6.202348261048408   Change is   -0.089731662604636
 Root      4 :     6.202407993520388   Change is   -0.089809667582551
 Root      5 :     7.898406309948435   Change is   -1.359265632269675
 Root      6 :    10.198046804555390   Change is   -0.397615352683666
 Root      7 :    10.212461900249270   Change is   -0.383349836598878
 Root      8 :    10.425544741751930   Change is   -0.223459497249779
 Root      9 :    10.519352045754270   Change is   -0.087210336190553
 Root     10 :    10.753955111141220   Change is   -0.130622589457633
 Root     11 :    10.761002979874600   Change is   -0.453032123666935
 Root     12 :    10.767473313651180   Change is   -0.156157828598879
 Root     13 :    10.804407547096050   Change is   -0.412856390666554
 Root     14 :    10.881587410115380   Change is   -0.226206936407801
 Root     15 :    11.145728247625810   Change is   -0.120739007054922
 Root     16 :    11.156096701108420   Change is   -0.165504621927882
 Root     17 :    11.470231730697880   Change is   -0.086960730945534
 Root     18 :    11.470254727715580   Change is   -0.086950973573562
 Root     19 :    11.481271470954460   Change is   -0.096888091731143
 Root     20 :    11.481308017491610   Change is   -0.096897935770196
 Root     21 :    11.556218484194660   Change is   -0.407925755263609
 Root     22 :    11.634920266459570   Change is   -0.546462376939540
 Root     23 :    12.403623004102730   Change is   -0.532320446234958
 Root     24 :    12.718785559217230   Change is   -1.308871695444711
 Iteration     3 Dimension    54 NMult    48 NNew      6
 Estimated number of processors is:   20
 CISAX will form     1 AO SS matrices at one time.
 NMat=     1 NSing=     1 JSym2X= 2.
 CoulSu:  requested number of processors reduced to:  20 ShMem   1 Linda.
 NMat=     1 NSing=     1 JSym2X= 2.
 CoulSu:  requested number of processors reduced to:  20 ShMem   1 Linda.
 NMat=     1 NSing=     1 JSym2X= 2.
 CoulSu:  requested number of processors reduced to:  20 ShMem   1 Linda.
 NMat=     1 NSing=     0 JSym2X= 2.
 CoulSu:  requested number of processors reduced to:  20 ShMem   1 Linda.
 NMat=     1 NSing=     0 JSym2X= 2.
 CoulSu:  requested number of processors reduced to:  20 ShMem   1 Linda.
 NMat=     1 NSing=     0 JSym2X= 2.
 CoulSu:  requested number of processors reduced to:  20 ShMem   1 Linda.
 Root      1 not converged, maximum delta is    0.002414851374813
 Excitation Energies [eV] at current iteration:
 Root      1 :     5.011448835764294   Change is   -0.002262109049658
 Root      2 :     5.011539500195137   Change is   -0.002263547337456
 Root      3 :     6.201848696543268   Change is   -0.000499564505140
 Root      4 :     6.201907600686031   Change is   -0.000500392834357
 Root      5 :     7.874833878640835   Change is   -0.023572431307601
 Root      6 :    10.511884540749320   Change is   -0.007467505004949
 Iteration     4 Dimension    60 NMult    54 NNew      6
 Estimated number of processors is:   20
 CISAX will form     1 AO SS matrices at one time.
 NMat=     1 NSing=     1 JSym2X= 2.
 CoulSu:  requested number of processors reduced to:  20 ShMem   1 Linda.
 NMat=     1 NSing=     1 JSym2X= 2.
 CoulSu:  requested number of processors reduced to:  20 ShMem   1 Linda.
 NMat=     1 NSing=     1 JSym2X= 2.
 CoulSu:  requested number of processors reduced to:  20 ShMem   1 Linda.
 NMat=     1 NSing=     0 JSym2X= 2.
 CoulSu:  requested number of processors reduced to:  20 ShMem   1 Linda.
 NMat=     1 NSing=     0 JSym2X= 2.
 CoulSu:  requested number of processors reduced to:  20 ShMem   1 Linda.
 NMat=     1 NSing=     0 JSym2X= 2.
 CoulSu:  requested number of processors reduced to:  20 ShMem   1 Linda.
 Root      1 has converged.
 Excitation Energies [eV] at current iteration:
 Root      1 :     5.011411192970141   Change is   -0.000037642794152
 Root      2 :     5.011501814819341   Change is   -0.000037685375796
 Root      3 :     6.201843216844295   Change is   -0.000005479698974
 Root      4 :     6.201902104332278   Change is   -0.000005496353754
 Root      5 :     7.874443274031939   Change is   -0.000390604608896
 Root      6 :    10.510973050205650   Change is   -0.000911490543678
 Convergence achieved on expansion vectors.
 ***********************************************************************
 Stability analysis using <AA,BB:AA,BB> singles matrix:
 ***********************************************************************
 1PDM for each excited state written to RWF  633
 Ground to excited state transition densities written to RWF  633

 Eigenvectors of the stability matrix:
 
 Eigenvector   1:      Triplet-E"   Eigenvalue= 0.1841660  <S**2>=2.000
       3 ->  5         0.67978
       3 ->  9        -0.17647
 The wavefunction is stable under the perturbations considered.
 Leave Link  914 at Sat Apr 17 07:03:16 2021, MaxMem=   104857600 cpu:            5002.1 elap:             126.2
 (Enter /s/ls4/users/knvvv/bin/g16sse/l508.exe)
 The wavefunction is already stable.
 Leave Link  508 at Sat Apr 17 07:03:16 2021, MaxMem=   104857600 cpu:               2.2 elap:               0.1
 (Enter /s/ls4/users/knvvv/bin/g16sse/l601.exe)
 Copying SCF densities to generalized density rwf, IOpCl= 0 IROHF=0.

 **********************************************************************

            Population analysis using the SCF density.

 **********************************************************************

 Orbital symmetries:
       Occupied  (A1') (A1') (E') (E')
       Virtual   (A2") (E') (E') (A1') (A2") (E') (E') (A1') (E")
                 (E") (E') (E') (A1') (A1') (E') (E') (A2") (E')
                 (E') (A2') (E") (E") (A2") (A1') (E') (E') (A1')
                 (E') (E') (E") (E") (A1') (E') (E') (E') (E')
                 (A2") (E") (E") (A1') (A2') (E') (E') (A2") (A1")
                 (A1') (E') (E') (E') (E') (A2") (E") (E") (E')
                 (E') (E") (E") (A2') (A1') (A1') (A2") (E") (E")
                 (E') (E') (A2') (A1') (E') (E') (E') (E') (E")
                 (E") (A1') (A2") (E') (E') (E") (E") (A1") (E')
                 (E') (A1') (E') (E') (A1') (E") (E") (A2") (A2')
                 (E') (E') (A1') (A2') (E") (E") (E') (E') (A2")
                 (E') (E') (E") (E") (E') (E') (A2") (A1') (E')
                 (E') (E") (E") (A1') (E') (E') (A2') (A1') (A1")
                 (A1") (E') (E') (E") (E") (A2") (A1') (E') (E')
                 (E") (E") (A2") (A2') (E") (E") (E') (E') (A1')
                 (A2') (E') (E') (E') (E') (A1') (A1') (A1')
 The electronic state is 1-A1'.
 Alpha  occ. eigenvalues --   -7.06346  -0.59002  -0.41416  -0.41416
 Alpha virt. eigenvalues --   -0.04010   0.07041   0.07041   0.09343   0.11073
 Alpha virt. eigenvalues --    0.15086   0.15086   0.17998   0.30232   0.30232
 Alpha virt. eigenvalues --    0.33373   0.33373   0.36127   0.42830   0.45191
 Alpha virt. eigenvalues --    0.45191   0.53341   0.54650   0.54650   0.60421
 Alpha virt. eigenvalues --    0.74356   0.74356   0.75810   0.86479   0.94053
 Alpha virt. eigenvalues --    0.94053   1.04136   1.07565   1.07565   1.12109
 Alpha virt. eigenvalues --    1.12109   1.14502   1.19749   1.19749   1.23794
 Alpha virt. eigenvalues --    1.23794   1.27438   1.35428   1.35428   1.36054
 Alpha virt. eigenvalues --    1.43682   1.53602   1.53602   1.84996   1.95686
 Alpha virt. eigenvalues --    2.02398   2.20397   2.20397   2.32259   2.32259
 Alpha virt. eigenvalues --    2.33864   2.35562   2.35562   2.51793   2.51793
 Alpha virt. eigenvalues --    2.52497   2.52497   2.58229   2.60753   2.71096
 Alpha virt. eigenvalues --    2.86183   2.91473   2.91473   2.91827   2.91827
 Alpha virt. eigenvalues --    3.02193   3.09926   3.14618   3.14618   3.31557
 Alpha virt. eigenvalues --    3.31557   3.47268   3.47268   3.49964   3.56723
 Alpha virt. eigenvalues --    3.57612   3.57612   3.60945   3.60945   3.88158
 Alpha virt. eigenvalues --    4.01567   4.01567   4.04701   4.29806   4.29806
 Alpha virt. eigenvalues --    4.41540   4.55811   4.55811   4.68259   4.71324
 Alpha virt. eigenvalues --    5.02423   5.02423   5.05496   5.67551   5.69906
 Alpha virt. eigenvalues --    5.69906   5.94494   5.94494   5.98973   6.40836
 Alpha virt. eigenvalues --    6.40836   6.42039   6.42039   6.69302   6.69302
 Alpha virt. eigenvalues --    6.74803   6.77524   7.00463   7.00463   7.00496
 Alpha virt. eigenvalues --    7.00496   7.02893   7.24548   7.24548   7.38317
 Alpha virt. eigenvalues --    7.46003   7.52206   7.69868   7.84057   7.84057
 Alpha virt. eigenvalues --    7.96046   7.96046   8.10574   8.11946   8.14629
 Alpha virt. eigenvalues --    8.14629   8.20667   8.20667   8.47544   8.53792
 Alpha virt. eigenvalues --    8.54079   8.54079   8.80534   8.80534   9.08259
 Alpha virt. eigenvalues --    9.08884   9.29601   9.29601   9.47778   9.47778
 Alpha virt. eigenvalues --   10.89055  19.75230 101.17732
          Condensed to atoms (all electrons):
               1          2          3          4
     1  B    3.906514   0.420128   0.420128   0.420128
     2  H    0.420128   0.566532  -0.021147  -0.021147
     3  H    0.420128  -0.021147   0.566532  -0.021147
     4  H    0.420128  -0.021147  -0.021147   0.566532
 Mulliken charges:
               1
     1  B   -0.166899
     2  H    0.055633
     3  H    0.055633
     4  H    0.055633
 Sum of Mulliken charges =   0.00000
 Mulliken charges with hydrogens summed into heavy atoms:
               1
     1  B    0.000000
 Electronic spatial extent (au):  <R**2>=             34.4917
 Charge=              0.0000 electrons
 Dipole moment (field-independent basis, Debye):
    X=             -0.0000    Y=             -0.0000    Z=             -0.0000  Tot=              0.0000
 Quadrupole moment (field-independent basis, Debye-Ang):
   XX=             -9.3238   YY=             -9.3238   ZZ=             -7.2231
   XY=             -0.0000   XZ=             -0.0000   YZ=             -0.0000
 Traceless Quadrupole moment (field-independent basis, Debye-Ang):
   XX=             -0.7002   YY=             -0.7002   ZZ=              1.4005
   XY=             -0.0000   XZ=             -0.0000   YZ=             -0.0000
 Octapole moment (field-independent basis, Debye-Ang**2):
  XXX=              0.0000  YYY=              0.1161  ZZZ=             -0.0000  XYY=              0.0000
  XXY=             -0.1161  XXZ=             -0.0000  XZZ=              0.0000  YZZ=              0.0000
  YYZ=             -0.0000  XYZ=              0.0000
 Hexadecapole moment (field-independent basis, Debye-Ang**3):
 XXXX=            -24.6606 YYYY=            -24.6606 ZZZZ=             -7.5192 XXXY=              0.0000
 XXXZ=             -0.0000 YYYX=              0.0000 YYYZ=              0.0000 ZZZX=             -0.0000
 ZZZY=             -0.0000 XXYY=             -8.2202 XXZZ=             -5.6572 YYZZ=             -5.6572
 XXYZ=             -0.0000 YYXZ=             -0.0000 ZZXY=              0.0000
 N-N= 7.419412121856D+00 E-N=-7.550386647317D+01  KE= 2.643160489839D+01
 PrsmSu:  requested number of processors reduced to:  21 ShMem   1 Linda.
 No NMR shielding tensors so no spin-rotation constants.
 Leave Link  601 at Sat Apr 17 07:03:21 2021, MaxMem=   104857600 cpu:             234.6 elap:               5.1
 (Enter /s/ls4/users/knvvv/bin/g16sse/l9999.exe)

 Test job not archived.
 1\1\GINC-N151\Stability\RM062X\def2QZVP\B1H3\KNVVV\17-Apr-2021\0\\#P M
 062X/Def2QZVP Integral=UltraFineGrid SCF=NoSymm Stable=(RExt, Opt) IOp
 (1/33=1)\\Database calculations.\\0,1\B,0,0.,0.,0.\H,0,-0.5966928,1.03
 35023,0.\H,0,-0.5966928,-1.0335023,0.\H,0,1.1933857,0.,0.\\Version=ES6
 4L-G16RevA.03\State=1-A1'\HF=-26.5992119\RMSD=2.740e-09\Dipole=0.,0.,0
 .\Quadrupole=-0.5206129,-0.5206129,1.0412258,0.,0.,0.\PG=D03H [O(B1),3
 C2(H1)]\\@


 THE MORE ACCURATE THE CALCULATIONS BECOME, THE MORE THE CONCEPTS
 TEND TO VANISH INTO THIN AIR.
     -- R.S. MULLIKEN, J.C.P. 43,S2(1965)
 Job cpu time:       0 days  3 hours 35 minutes 52.3 seconds.
 Elapsed time:       0 days  0 hours  4 minutes 58.7 seconds.
 File lengths (MBytes):  RWF=     54 Int=      0 D2E=      0 Chk=      3 Scr=      1
 Normal termination of Gaussian 16 at Sat Apr 17 07:03:22 2021.
