 Entering Gaussian System, Link 0=/opt/g16avx/g16
 Input=M062X--def2-TZVP--06_V2_MR-TMD-BE3.gjf
 Output=M062X--def2-TZVP--06_V2_MR-TMD-BE3.log
 Initial command:
 /opt/g16avx/l1.exe "/scratch/gaussian/Gau-18289.inp" -scrdir="/scratch/gaussian/"
 Entering Link 1 = /opt/g16avx/l1.exe PID=     18291.
  
 Copyright (c) 1988,1990,1992,1993,1995,1998,2003,2009,2016,
            Gaussian, Inc.  All Rights Reserved.
  
 This is part of the Gaussian(R) 16 program.  It is based on
 the Gaussian(R) 09 system (copyright 2009, Gaussian, Inc.),
 the Gaussian(R) 03 system (copyright 2003, Gaussian, Inc.),
 the Gaussian(R) 98 system (copyright 1998, Gaussian, Inc.),
 the Gaussian(R) 94 system (copyright 1995, Gaussian, Inc.),
 the Gaussian 92(TM) system (copyright 1992, Gaussian, Inc.),
 the Gaussian 90(TM) system (copyright 1990, Gaussian, Inc.),
 the Gaussian 88(TM) system (copyright 1988, Gaussian, Inc.),
 the Gaussian 86(TM) system (copyright 1986, Carnegie Mellon
 University), and the Gaussian 82(TM) system (copyright 1983,
 Carnegie Mellon University). Gaussian is a federally registered
 trademark of Gaussian, Inc.
  
 This software contains proprietary and confidential information,
 including trade secrets, belonging to Gaussian, Inc.
  
 This software is provided under written license and may be
 used, copied, transmitted, or stored only in accord with that
 written license.
  
 The following legend is applicable only to US Government
 contracts under FAR:
  
                    RESTRICTED RIGHTS LEGEND
  
 Use, reproduction and disclosure by the US Government is
 subject to restrictions as set forth in subparagraphs (a)
 and (c) of the Commercial Computer Software - Restricted
 Rights clause in FAR 52.227-19.
  
 Gaussian, Inc.
 340 Quinnipiac St., Bldg. 40, Wallingford CT 06492
  
  
 ---------------------------------------------------------------
 Warning -- This program may not be used in any manner that
 competes with the business of Gaussian, Inc. or will provide
 assistance to any competitor of Gaussian, Inc.  The licensee
 of this program is prohibited from giving any competitor of
 Gaussian, Inc. access to this program.  By using this program,
 the user acknowledges that Gaussian, Inc. is engaged in the
 business of creating and licensing software in the field of
 computational chemistry and represents and warrants to the
 licensee that it is not a competitor of Gaussian, Inc. and that
 it will not use this program in any manner prohibited above.
 ---------------------------------------------------------------
  

 Cite this work as:
 Gaussian 16, Revision A.03,
 M. J. Frisch, G. W. Trucks, H. B. Schlegel, G. E. Scuseria, 
 M. A. Robb, J. R. Cheeseman, G. Scalmani, V. Barone, 
 G. A. Petersson, H. Nakatsuji, X. Li, M. Caricato, A. V. Marenich, 
 J. Bloino, B. G. Janesko, R. Gomperts, B. Mennucci, H. P. Hratchian, 
 J. V. Ortiz, A. F. Izmaylov, J. L. Sonnenberg, D. Williams-Young, 
 F. Ding, F. Lipparini, F. Egidi, J. Goings, B. Peng, A. Petrone, 
 T. Henderson, D. Ranasinghe, V. G. Zakrzewski, J. Gao, N. Rega, 
 G. Zheng, W. Liang, M. Hada, M. Ehara, K. Toyota, R. Fukuda, 
 J. Hasegawa, M. Ishida, T. Nakajima, Y. Honda, O. Kitao, H. Nakai, 
 T. Vreven, K. Throssell, J. A. Montgomery, Jr., J. E. Peralta, 
 F. Ogliaro, M. J. Bearpark, J. J. Heyd, E. N. Brothers, K. N. Kudin, 
 V. N. Staroverov, T. A. Keith, R. Kobayashi, J. Normand, 
 K. Raghavachari, A. P. Rendell, J. C. Burant, S. S. Iyengar, 
 J. Tomasi, M. Cossi, J. M. Millam, M. Klene, C. Adamo, R. Cammi, 
 J. W. Ochterski, R. L. Martin, K. Morokuma, O. Farkas, 
 J. B. Foresman, and D. J. Fox, Gaussian, Inc., Wallingford CT, 2016.
 
 ******************************************
 Gaussian 16:  ES64L-G16RevA.03 25-Dec-2016
                19-Apr-2021 
 ******************************************
 %nprocshared=24
 Will use up to   24 processors via shared memory.
 ----------------------------------------------------------------------
 #P M062X/Def2TZVP Integral=UltraFineGrid scf=(nosymm,xqc,maxconven=155
 ) Stable=(RExt, Opt) IOp(1/33=1)
 ----------------------------------------------------------------------
 1/33=1,38=1,172=1/1;
 2/12=2,17=6,18=5,40=1/2;
 3/5=44,7=101,11=2,25=1,30=1,74=-55,75=-5/1,2,3;
 4/9=2/1;
 5/5=2,8=3,13=1,38=5,85=155/2,8;
 6/7=2,8=2,9=2,10=2,28=1/1;
 8/6=1,10=90,11=11/1;
 9/8=-3,42=1,46=1/14;
 5/5=2,8=3,17=40,38=5/8(-2);
 6/7=2,8=2,9=2,10=2,28=1/1;
 99/5=1,9=1/99;
 Leave Link    1 at Mon Apr 19 23:53:10 2021, MaxMem=           0 cpu:               1.6 elap:               0.1
 (Enter /opt/g16avx/l101.exe)
 ONIOM data not found on unit 2.
 ----------------------
 Database calculations.
 ----------------------
 TstMul:  ICh=     0
 TstMul:  Mul=     3
 TstMul:  ICh=     0
 TstMul:  Mul=     3
 Symbolic Z-matrix:
 Charge =  0 Multiplicity = 3
 V                     0.        0.        0. 
 V                     0.        0.        1.77 
 
 RdStrC is calling ZToCFu for IStruc=1 NZ=     2.
 PrtBox:  NBox=     1 Levels=  1 BoxLen=    8.00 SMaxX=        3.34
          Shift=            0.000000            0.000000            0.000000
 Box      1 Number                   0 centers from      1 to      2:
 After GenITR:
 ITRead=  0  0
 MicOpt= -1 -1
 ITRead=  0  0
 MicOpt= -1 -1
 NAtoms=      2 NQM=        2 NQMF=       0 NMMI=      0 NMMIF=      0
                NMic=       0 NMicF=      0.
                    Isotopes and Nuclear Properties:
 (Nuclear quadrupole moments (NQMom) in fm**2, nuclear magnetic moments (NMagM)
  in nuclear magnetons)

  Atom         1           2
 IAtWgt=          51          51
 AtmWgt=  50.9439625  50.9439625
 NucSpn=           7           7
 AtZEff=  -0.0000000  -0.0000000
 NQMom=   -5.2000000  -5.2000000
 NMagM=    5.1514000   5.1514000
 AtZNuc=  23.0000000  23.0000000
 No MM parameters found.
 Leave Link  101 at Mon Apr 19 23:53:10 2021, MaxMem=   104857600 cpu:               3.5 elap:               0.2
 (Enter /opt/g16avx/l202.exe)
                          Input orientation:                          
 ---------------------------------------------------------------------
 Center     Atomic      Atomic             Coordinates (Angstroms)
 Number     Number       Type             X           Y           Z
 ---------------------------------------------------------------------
      1         23           0        0.000000    0.000000    0.000000
      2         23           0        0.000000    0.000000    1.770000
 ---------------------------------------------------------------------
 Stoichiometry    V2(3)
 Framework group  D*H[C*(V.V)]
 Deg. of freedom     1
 Full point group                 D*H     NOp   8
 Largest Abelian subgroup         D2H     NOp   8
 Largest concise Abelian subgroup C2      NOp   2
                         Standard orientation:                         
 ---------------------------------------------------------------------
 Center     Atomic      Atomic             Coordinates (Angstroms)
 Number     Number       Type             X           Y           Z
 ---------------------------------------------------------------------
      1         23           0        0.000000    0.000000    0.885000
      2         23           0        0.000000    0.000000   -0.885000
 ---------------------------------------------------------------------
 Rotational constants (GHZ):           0.0000000           6.3329774           6.3329774
 Leave Link  202 at Mon Apr 19 23:53:10 2021, MaxMem=   104857600 cpu:               0.5 elap:               0.0
 (Enter /opt/g16avx/l301.exe)
 Standard basis: def2TZVP (5D, 7F)
 Ernie: Thresh=  0.10000D-02 Tol=  0.10000D-05 Strict=F.
 There are    25 symmetry adapted cartesian basis functions of AG  symmetry.
 There are     5 symmetry adapted cartesian basis functions of B1G symmetry.
 There are    11 symmetry adapted cartesian basis functions of B2G symmetry.
 There are    11 symmetry adapted cartesian basis functions of B3G symmetry.
 There are     5 symmetry adapted cartesian basis functions of AU  symmetry.
 There are    25 symmetry adapted cartesian basis functions of B1U symmetry.
 There are    11 symmetry adapted cartesian basis functions of B2U symmetry.
 There are    11 symmetry adapted cartesian basis functions of B3U symmetry.
 There are    20 symmetry adapted basis functions of AG  symmetry.
 There are     5 symmetry adapted basis functions of B1G symmetry.
 There are    10 symmetry adapted basis functions of B2G symmetry.
 There are    10 symmetry adapted basis functions of B3G symmetry.
 There are     5 symmetry adapted basis functions of AU  symmetry.
 There are    20 symmetry adapted basis functions of B1U symmetry.
 There are    10 symmetry adapted basis functions of B2U symmetry.
 There are    10 symmetry adapted basis functions of B3U symmetry.
    90 basis functions,   204 primitive gaussians,   104 cartesian basis functions
    24 alpha electrons       22 beta electrons
       nuclear repulsion energy       158.1552229247 Hartrees.
 IExCor= 4336 DFT=T Ex+Corr=M062X ExCW=0 ScaHFX=  0.540000
 ScaDFX=  1.000000  1.000000  1.000000  1.000000 ScalE2=  1.000000  1.000000
 IRadAn=      5 IRanWt=     -1 IRanGd=            0 ICorTp=0 IEmpDi=  4
 NAtoms=    2 NActive=    2 NUniq=    1 SFac= 4.00D+00 NAtFMM=   60 NAOKFM=F Big=F
 Integral buffers will be    131072 words long.
 Raffenetti 2 integral format.
 Two-electron integral symmetry is turned on.
 Leave Link  301 at Mon Apr 19 23:53:10 2021, MaxMem=   104857600 cpu:               0.9 elap:               0.0
 (Enter /opt/g16avx/l302.exe)
 NPDir=0 NMtPBC=     1 NCelOv=     1 NCel=       1 NClECP=     1 NCelD=      1
         NCelK=      1 NCelE2=     1 NClLst=     1 CellRange=     0.0.
 One-electron integrals computed using PRISM.
 One-electron integral symmetry used in STVInt
 PrsmSu:  requested number of processors reduced to:  13 ShMem   1 Linda.
   8 Symmetry operations used in ECPInt.
 ECPInt:  NShTT=     465 NPrTT=    2746 LenC2=     465 LenP2D=    2325.
 LDataN:  DoStor=T MaxTD1= 6 Len=  172
 NBasis=    90 RedAO= T EigKep=  2.91D-04  NBF=    20     5    10    10     5    20    10    10
 NBsUse=    90 1.00D-06 EigRej= -1.00D+00 NBFU=    20     5    10    10     5    20    10    10
 Precomputing XC quadrature grid using
 IXCGrd= 4 IRadAn=           5 IRanWt=          -1 IRanGd=           0 AccXCQ= 0.00D+00.
 Generated NRdTot=       0 NPtTot=           0 NUsed=           0 NTot=          32
 NSgBfM=   103   103   103   103   103 MxSgAt=     2 MxSgA2=     2.
 Leave Link  302 at Mon Apr 19 23:53:10 2021, MaxMem=   104857600 cpu:               3.2 elap:               0.1
 (Enter /opt/g16avx/l303.exe)
 DipDrv:  MaxL=1.
 Leave Link  303 at Mon Apr 19 23:53:10 2021, MaxMem=   104857600 cpu:               1.1 elap:               0.0
 (Enter /opt/g16avx/l401.exe)
 SCF N**3 symmetry information disabled.
 ExpMin= 3.50D-02 ExpMax= 2.32D+05 ExpMxC= 2.24D+03 IAcc=3 IRadAn=         5 AccDes= 0.00D+00
 Harris functional with IExCor= 1009 and IRadAn=       5 diagonalized for initial guess.
 HarFok:  IExCor= 1009 AccDes= 0.00D+00 IRadAn=         5 IDoV= 1 UseB2=F ITyADJ=14
 ICtDFT=  3500011 ScaDFX=  1.000000  1.000000  1.000000  1.000000
 FoFCou: FMM=F IPFlag=           0 FMFlag=      100000 FMFlg1=           0
         NFxFlg=           0 DoJE=T BraDBF=F KetDBF=T FulRan=T
         wScrn=  0.000000 ICntrl=       500 IOpCl=  0 I1Cent=   200000004 NGrid=           0
         NMat0=    1 NMatS0=      1 NMatT0=    0 NMatD0=    1 NMtDS0=    0 NMtDT0=    0
 Petite list used in FoFCou.
 Harris En= -1887.26876134560    
 JPrj=0 DoOrth=F DoCkMO=F.
 Initial guess orbital symmetries:
 Alpha Orbitals:
       Occupied  (SGU) (SGG) (SGU) (SGG) (SGU) (SGG) (PIG) (PIG)
                 (PIU) (PIU) (SGG) (SGU) (SGG) (PIU) (PIU) (PIG)
                 (PIG) (SGU) (PIU) (PIU) (SGG) (DLTG) (DLTG) (SGG)
       Virtual   (DLTU) (DLTU) (PIG) (PIG) (SGU) (SGU) (PIU) (PIU)
                 (SGG) (PIG) (PIG) (SGG) (DLTG) (DLTG) (SGU) (SGU)
                 (PIU) (PIU) (DLTU) (DLTU) (SGG) (PIG) (PIG) (SGU)
                 (DLTG) (DLTG) (PIU) (PIU) (DLTU) (DLTU) (SGG)
                 (PIG) (PIG) (SGU) (PIU) (PIU) (SGG) (PIG) (PIG)
                 (SGU) (SGG) (PIU) (PIU) (DLTG) (DLTG) (SGU) (PHIU)
                 (PHIU) (PHIG) (PHIG) (SGG) (DLTG) (DLTG) (DLTU)
                 (DLTU) (PIU) (PIU) (DLTU) (DLTU) (PIG) (PIG) (SGG)
                 (SGU) (PIG) (PIG) (SGU)
 Beta  Orbitals:
       Occupied  (SGU) (SGG) (SGU) (SGG) (SGU) (SGG) (PIG) (PIG)
                 (PIU) (PIU) (SGG) (SGU) (SGG) (PIU) (PIU) (PIG)
                 (PIG) (SGU) (PIU) (PIU) (SGG) (DLTG)
       Virtual   (DLTG) (SGG) (DLTU) (DLTU) (PIG) (PIG) (SGU) (SGU)
                 (PIU) (PIU) (SGG) (PIG) (PIG) (SGG) (DLTG) (DLTG)
                 (SGU) (SGU) (PIU) (PIU) (DLTU) (DLTU) (SGG) (PIG)
                 (PIG) (SGU) (DLTG) (DLTG) (PIU) (PIU) (DLTU) (DLTU)
                 (SGG) (PIG) (PIG) (SGU) (PIU) (PIU) (SGG) (PIG)
                 (PIG) (SGU) (SGG) (PIU) (PIU) (DLTG) (DLTG) (SGU)
                 (PHIU) (PHIU) (PHIG) (PHIG) (SGG) (DLTG) (DLTG)
                 (DLTU) (DLTU) (PIU) (PIU) (DLTU) (DLTU) (PIG)
                 (PIG) (SGG) (SGU) (PIG) (PIG) (SGU)
 Initial guess <Sx>= 0.0000 <Sy>= 0.0000 <Sz>= 1.0000 <S**2>= 2.0000 S= 1.0000
 Leave Link  401 at Mon Apr 19 23:53:10 2021, MaxMem=   104857600 cpu:               3.5 elap:               0.1
 (Enter /opt/g16avx/l502.exe)
 Keep R1 and R2 ints in memory in symmetry-blocked form, NReq=30721886.
 FoFCou: FMM=F IPFlag=           0 FMFlag=           0 FMFlg1=           0
         NFxFlg=           0 DoJE=F BraDBF=F KetDBF=F FulRan=T
         wScrn=  0.000000 ICntrl=       600 IOpCl=  0 I1Cent=           0 NGrid=           0
         NMat0=    1 NMatS0=   4095 NMatT0=    0 NMatD0=    1 NMtDS0=    0 NMtDT0=    0
 Petite list used in FoFCou.
 UHF open shell SCF:
 Using DIIS extrapolation, IDIIS=  1040.
 NGot=   104857600 LenX=   102654178 LenY=   102642921
 Requested convergence on RMS density matrix=1.00D-08 within 155 cycles.
 Requested convergence on MAX density matrix=1.00D-06.
 Requested convergence on             energy=1.00D-06.
 No special actions if energy rises.

 Cycle   1  Pass 1  IDiag  1:
 E= -1887.35445676400    
 DIIS: error= 6.67D-02 at cycle   1 NSaved=   1.
 NSaved= 1 IEnMin= 1 EnMin= -1887.35445676400     IErMin= 1 ErrMin= 6.67D-02
 ErrMax= 6.67D-02  0.00D+00 EMaxC= 1.00D-01 BMatC= 1.10D+00 BMatP= 1.10D+00
 IDIUse=3 WtCom= 3.33D-01 WtEn= 6.67D-01
 Coeff-Com:  0.100D+01
 Coeff-En:   0.100D+01
 Coeff:      0.100D+01
 Gap=     0.382 Goal=   None    Shift=    0.000
 Gap=     0.225 Goal=   None    Shift=    0.000
 GapD=    0.225 DampG=1.000 DampE=0.250 DampFc=0.2500 IDamp=-1.
 Damping current iteration by 2.50D-01
 RMSDP=1.01D-01 MaxDP=2.69D+00              OVMax= 1.00D+00

 Cycle   2  Pass 1  IDiag  1:
 E= -1887.37112227002     Delta-E=       -0.016665506025 Rises=F Damp=T
 DIIS: error= 3.58D-02 at cycle   2 NSaved=   2.
 NSaved= 2 IEnMin= 2 EnMin= -1887.37112227002     IErMin= 2 ErrMin= 3.58D-02
 ErrMax= 3.58D-02  0.00D+00 EMaxC= 1.00D-01 BMatC= 3.02D-01 BMatP= 1.10D+00
 IDIUse=3 WtCom= 6.42D-01 WtEn= 3.58D-01
 Coeff-Com: -0.252D-03 0.100D+01
 Coeff-En:   0.449D+00 0.551D+00
 Coeff:      0.161D+00 0.839D+00
 Gap=     0.041 Goal=   None    Shift=    0.000
 Gap=     0.041 Goal=   None    Shift=    0.000
 RMSDP=2.54D-02 MaxDP=6.31D-01 DE=-1.67D-02 OVMax= 1.00D+00

 Cycle   3  Pass 1  IDiag  1:
 E= -1887.59998557080     Delta-E=       -0.228863300778 Rises=F Damp=F
 DIIS: error= 8.84D-03 at cycle   3 NSaved=   3.
 NSaved= 3 IEnMin= 3 EnMin= -1887.59998557080     IErMin= 3 ErrMin= 8.84D-03
 ErrMax= 8.84D-03  0.00D+00 EMaxC= 1.00D-01 BMatC= 1.07D-02 BMatP= 3.02D-01
 IDIUse=3 WtCom= 9.12D-01 WtEn= 8.84D-02
 Coeff-Com: -0.365D-01 0.801D-01 0.956D+00
 Coeff-En:   0.000D+00 0.000D+00 0.100D+01
 Coeff:     -0.333D-01 0.730D-01 0.960D+00
 Gap=     0.101 Goal=   None    Shift=    0.000
 Gap=     0.057 Goal=   None    Shift=    0.000
 RMSDP=1.49D-03 MaxDP=2.78D-02 DE=-2.29D-01 OVMax= 1.14D-01

 Cycle   4  Pass 1  IDiag  1:
 E= -1887.60604415054     Delta-E=       -0.006058579736 Rises=F Damp=F
 DIIS: error= 7.40D-03 at cycle   4 NSaved=   4.
 NSaved= 4 IEnMin= 4 EnMin= -1887.60604415054     IErMin= 4 ErrMin= 7.40D-03
 ErrMax= 7.40D-03  0.00D+00 EMaxC= 1.00D-01 BMatC= 1.08D-02 BMatP= 1.07D-02
 IDIUse=3 WtCom= 9.26D-01 WtEn= 7.40D-02
 Coeff-Com:  0.616D-01-0.885D-01 0.283D+00 0.744D+00
 Coeff-En:   0.000D+00 0.000D+00 0.000D+00 0.100D+01
 Coeff:      0.570D-01-0.820D-01 0.262D+00 0.763D+00
 Gap=     0.111 Goal=   None    Shift=    0.000
 Gap=     0.062 Goal=   None    Shift=    0.000
 RMSDP=5.18D-04 MaxDP=1.25D-02 DE=-6.06D-03 OVMax= 4.88D-02

 Cycle   5  Pass 1  IDiag  1:
 E= -1887.60801964144     Delta-E=       -0.001975490904 Rises=F Damp=F
 DIIS: error= 5.61D-03 at cycle   5 NSaved=   5.
 NSaved= 5 IEnMin= 5 EnMin= -1887.60801964144     IErMin= 5 ErrMin= 5.61D-03
 ErrMax= 5.61D-03  0.00D+00 EMaxC= 1.00D-01 BMatC= 4.77D-03 BMatP= 1.07D-02
 IDIUse=3 WtCom= 9.44D-01 WtEn= 5.61D-02
 Coeff-Com:  0.667D-01-0.743D-01 0.723D-01 0.103D+00 0.833D+00
 Coeff-En:   0.000D+00 0.000D+00 0.000D+00 0.000D+00 0.100D+01
 Coeff:      0.630D-01-0.701D-01 0.682D-01 0.970D-01 0.842D+00
 Gap=     0.116 Goal=   None    Shift=    0.000
 Gap=     0.063 Goal=   None    Shift=    0.000
 RMSDP=4.32D-04 MaxDP=6.03D-03 DE=-1.98D-03 OVMax= 4.63D-02

 Cycle   6  Pass 1  IDiag  1:
 E= -1887.60967446757     Delta-E=       -0.001654826130 Rises=F Damp=F
 DIIS: error= 4.26D-03 at cycle   6 NSaved=   6.
 NSaved= 6 IEnMin= 6 EnMin= -1887.60967446757     IErMin= 6 ErrMin= 4.26D-03
 ErrMax= 4.26D-03  0.00D+00 EMaxC= 1.00D-01 BMatC= 2.51D-03 BMatP= 4.77D-03
 IDIUse=3 WtCom= 9.57D-01 WtEn= 4.26D-02
 Coeff-Com:  0.241D-01-0.282D-01 0.684D-01-0.214D+00-0.416D+00 0.157D+01
 Coeff-En:   0.000D+00 0.000D+00 0.000D+00 0.000D+00 0.000D+00 0.100D+01
 Coeff:      0.231D-01-0.270D-01 0.655D-01-0.205D+00-0.398D+00 0.154D+01
 Gap=     0.119 Goal=   None    Shift=    0.000
 Gap=     0.058 Goal=   None    Shift=    0.000
 RMSDP=9.39D-04 MaxDP=1.58D-02 DE=-1.65D-03 OVMax= 1.01D-01

 Cycle   7  Pass 1  IDiag  1:
 E= -1887.61304319835     Delta-E=       -0.003368730778 Rises=F Damp=F
 DIIS: error= 3.31D-03 at cycle   7 NSaved=   7.
 NSaved= 7 IEnMin= 7 EnMin= -1887.61304319835     IErMin= 7 ErrMin= 3.31D-03
 ErrMax= 3.31D-03  0.00D+00 EMaxC= 1.00D-01 BMatC= 1.60D-03 BMatP= 2.51D-03
 IDIUse=3 WtCom= 9.67D-01 WtEn= 3.31D-02
 Coeff-Com:  0.209D-01-0.250D-01 0.755D-01-0.303D+00-0.663D+00 0.239D+01
 Coeff-Com: -0.492D+00
 Coeff-En:   0.000D+00 0.000D+00 0.000D+00 0.000D+00 0.000D+00 0.000D+00
 Coeff-En:   0.100D+01
 Coeff:      0.202D-01-0.242D-01 0.730D-01-0.293D+00-0.641D+00 0.231D+01
 Coeff:     -0.443D+00
 Gap=     0.118 Goal=   None    Shift=    0.000
 Gap=     0.053 Goal=   None    Shift=    0.000
 RMSDP=4.42D-04 MaxDP=8.64D-03 DE=-3.37D-03 OVMax= 5.58D-02

 Cycle   8  Pass 1  IDiag  1:
 E= -1887.61167993938     Delta-E=        0.001363258971 Rises=F Damp=F
 DIIS: error= 3.01D-03 at cycle   8 NSaved=   8.
 NSaved= 8 IEnMin= 7 EnMin= -1887.61304319835     IErMin= 8 ErrMin= 3.01D-03
 ErrMax= 3.01D-03  0.00D+00 EMaxC= 1.00D-01 BMatC= 1.26D-03 BMatP= 1.60D-03
 IDIUse=3 WtCom= 9.70D-01 WtEn= 3.01D-02
 Rare condition: small coef for last iteration:  0.000D+00
 Coeff-Com:  0.118D-01-0.114D-01 0.130D-01-0.342D-01 0.143D+00-0.670D+00
 Coeff-Com: -0.270D+01 0.425D+01
 Coeff-En:   0.000D+00 0.000D+00 0.000D+00 0.000D+00 0.000D+00 0.000D+00
 Coeff-En:   0.000D+00 0.100D+01
 Coeff:      0.118D-01-0.114D-01 0.130D-01-0.342D-01 0.143D+00-0.670D+00
 Coeff:     -0.270D+01 0.425D+01
 Gap=     0.118 Goal=   None    Shift=    0.000
 Gap=     0.028 Goal=   None    Shift=    0.000
 RMSDP=1.60D-03 MaxDP=3.65D-02 DE= 1.36D-03 OVMax= 1.88D-01

 Cycle   9  Pass 1  IDiag  1:
 E= -1887.61121544082     Delta-E=        0.000464498557 Rises=F Damp=F
 DIIS: error= 2.89D-03 at cycle   9 NSaved=   9.
 NSaved= 9 IEnMin= 7 EnMin= -1887.61304319835     IErMin= 9 ErrMin= 2.89D-03
 ErrMax= 2.89D-03  0.00D+00 EMaxC= 1.00D-01 BMatC= 1.16D-03 BMatP= 1.26D-03
 IDIUse=3 WtCom= 9.71D-01 WtEn= 2.89D-02
 Rare condition: small coef for last iteration:  0.000D+00
 Coeff-Com:  0.113D-01-0.120D-01 0.303D-01-0.120D+00-0.151D+00 0.920D-01
 Coeff-Com: -0.142D+01 0.220D+01 0.375D+00
 Coeff-En:   0.000D+00 0.000D+00 0.000D+00 0.000D+00 0.000D+00 0.000D+00
 Coeff-En:   0.000D+00 0.000D+00 0.100D+01
 Coeff:      0.113D-01-0.120D-01 0.303D-01-0.120D+00-0.151D+00 0.920D-01
 Coeff:     -0.142D+01 0.220D+01 0.375D+00
 Gap=     0.119 Goal=   None    Shift=    0.000
 Gap=     0.042 Goal=   None    Shift=    0.000
 RMSDP=5.04D-04 MaxDP=6.96D-03 DE= 4.64D-04 OVMax= 5.25D-02

 Cycle  10  Pass 1  IDiag  1:
 E= -1887.61204168271     Delta-E=       -0.000826241892 Rises=F Damp=F
 DIIS: error= 2.72D-03 at cycle  10 NSaved=  10.
 NSaved=10 IEnMin= 7 EnMin= -1887.61304319835     IErMin=10 ErrMin= 2.72D-03
 ErrMax= 2.72D-03  0.00D+00 EMaxC= 1.00D-01 BMatC= 9.96D-04 BMatP= 1.16D-03
 IDIUse=3 WtCom= 9.73D-01 WtEn= 2.72D-02
 Coeff-Com:  0.114D-01-0.123D-01 0.342D-01-0.134D+00-0.200D+00 0.263D+00
 Coeff-Com: -0.158D+01 0.233D+01 0.522D+00-0.238D+00
 Coeff-En:   0.000D+00 0.000D+00 0.000D+00 0.000D+00 0.000D+00 0.000D+00
 Coeff-En:   0.000D+00 0.000D+00 0.000D+00 0.100D+01
 Coeff:      0.111D-01-0.120D-01 0.332D-01-0.130D+00-0.194D+00 0.256D+00
 Coeff:     -0.153D+01 0.227D+01 0.508D+00-0.205D+00
 Gap=     0.119 Goal=   None    Shift=    0.000
 Gap=     0.042 Goal=   None    Shift=    0.000
 RMSDP=1.41D-04 MaxDP=2.87D-03 DE=-8.26D-04 OVMax= 1.99D-02

 Cycle  11  Pass 1  IDiag  1:
 E= -1887.61168463727     Delta-E=        0.000357045445 Rises=F Damp=F
 DIIS: error= 2.62D-03 at cycle  11 NSaved=  11.
 NSaved=11 IEnMin= 7 EnMin= -1887.61304319835     IErMin=11 ErrMin= 2.62D-03
 ErrMax= 2.62D-03  0.00D+00 EMaxC= 1.00D-01 BMatC= 9.11D-04 BMatP= 9.96D-04
 IDIUse=3 WtCom= 9.74D-01 WtEn= 2.62D-02
 Large coefficients: NSaved= 11 BigCof=   17.83 CofMax=   10.00 Det=-2.52D-07
 Inversion failed.  Reducing to 10 matrices.
 Large coefficients: NSaved= 10 BigCof=   15.42 CofMax=   10.00 Det=-4.38D-07
 Inversion failed.  Reducing to  9 matrices.
 Large coefficients: NSaved=  9 BigCof=   15.12 CofMax=   10.00 Det=-4.43D-07
 Inversion failed.  Reducing to  8 matrices.
 Large coefficients: NSaved=  8 BigCof=   15.39 CofMax=   10.00 Det=-4.44D-07
 Inversion failed.  Reducing to  7 matrices.
 Large coefficients: NSaved=  7 BigCof=   15.33 CofMax=   10.00 Det=-4.93D-07
 Inversion failed.  Reducing to  6 matrices.
 Large coefficients: NSaved=  6 BigCof=   14.94 CofMax=   10.00 Det=-5.20D-07
 Inversion failed.  Reducing to  5 matrices.
 Large coefficients: NSaved=  5 BigCof=   15.88 CofMax=   10.00 Det=-1.89D-06
 Inversion failed.  Reducing to  4 matrices.
 Large coefficients: NSaved=  4 BigCof=   14.25 CofMax=   10.00 Det=-1.93D-06
 Inversion failed.  Reducing to  3 matrices.
 Large coefficients: NSaved=  3 BigCof=   16.81 CofMax=   10.00 Det=-2.49D-06
 Inversion failed.  Reducing to  2 matrices.
 Large coefficients: NSaved=  2 BigCof=   16.73 CofMax=   10.00 Det=-2.60D-06
 Coeff-Com: -0.157D+02 0.167D+02
 Coeff-En:   0.000D+00 0.100D+01
 Coeff:     -0.153D+02 0.163D+02
 Gap=     0.113 Goal=   None    Shift=    0.000
 Gap=     0.069 Goal=   None    Shift=    0.000
 RMSDP=1.47D-03 MaxDP=2.55D-02 DE= 3.57D-04 OVMax= 2.01D-01

 Cycle  12  Pass 1  IDiag  1:
 E= -1887.60759783201     Delta-E=        0.004086805257 Rises=F Damp=F
 DIIS: error= 3.65D-03 at cycle  12 NSaved=   3.
 NSaved= 3 IEnMin= 1 EnMin= -1887.61204168271     IErMin= 2 ErrMin= 2.62D-03
 ErrMax= 3.65D-03  0.00D+00 EMaxC= 1.00D-01 BMatC= 1.08D-03 BMatP= 9.11D-04
 IDIUse=3 WtCom= 9.74D-01 WtEn= 2.62D-02
 Large coefficients: NSaved=  3 BigCof=   16.44 CofMax=   10.00 Det=-2.53D-06
 Inversion failed.  Reducing to  2 matrices.
 Coeff-Com:  0.741D+00 0.259D+00
 Coeff-En:   0.000D+00 0.100D+01
 Coeff:      0.722D+00 0.278D+00
 Gap=     0.123 Goal=   None    Shift=    0.000
 Gap=     0.065 Goal=   None    Shift=    0.000
 RMSDP=1.54D-03 MaxDP=2.32D-02 DE= 4.09D-03 OVMax= 1.94D-01

 Cycle  13  Pass 1  IDiag  1:
 E= -1887.61191927111     Delta-E=       -0.004321439102 Rises=F Damp=F
 DIIS: error= 3.52D-03 at cycle  13 NSaved=   3.
 NSaved= 3 IEnMin= 3 EnMin= -1887.61191927111     IErMin= 1 ErrMin= 2.62D-03
 ErrMax= 3.52D-03  0.00D+00 EMaxC= 1.00D-01 BMatC= 1.00D-03 BMatP= 9.11D-04
 IDIUse=3 WtCom= 9.74D-01 WtEn= 2.62D-02
 Coeff-Com:  0.591D+00-0.808D-01 0.490D+00
 Coeff-En:   0.000D+00 0.000D+00 0.100D+01
 Coeff:      0.575D+00-0.787D-01 0.503D+00
 Gap=     0.121 Goal=   None    Shift=    0.000
 Gap=     0.055 Goal=   None    Shift=    0.000
 RMSDP=6.90D-04 MaxDP=1.50D-02 DE=-4.32D-03 OVMax= 8.63D-02

 Cycle  14  Pass 1  IDiag  1:
 E= -1887.61429651137     Delta-E=       -0.002377240262 Rises=F Damp=F
 DIIS: error= 2.62D-03 at cycle  14 NSaved=   4.
 NSaved= 4 IEnMin= 4 EnMin= -1887.61429651137     IErMin= 1 ErrMin= 2.62D-03
 ErrMax= 2.62D-03  0.00D+00 EMaxC= 1.00D-01 BMatC= 8.97D-04 BMatP= 9.11D-04
 IDIUse=3 WtCom= 9.74D-01 WtEn= 2.62D-02
 Coeff-Com:  0.143D+01-0.837D-01 0.589D+00-0.939D+00
 Coeff-En:   0.000D+00 0.000D+00 0.000D+00 0.100D+01
 Coeff:      0.140D+01-0.815D-01 0.573D+00-0.888D+00
 Gap=     0.120 Goal=   None    Shift=    0.000
 Gap=     0.047 Goal=   None    Shift=    0.000
 RMSDP=1.28D-03 MaxDP=2.55D-02 DE=-2.38D-03 OVMax= 1.49D-01

 Cycle  15  Pass 1  IDiag  1:
 E= -1887.61169082553     Delta-E=        0.002605685848 Rises=F Damp=F
 DIIS: error= 2.31D-03 at cycle  15 NSaved=   5.
 NSaved= 5 IEnMin= 4 EnMin= -1887.61429651137     IErMin= 5 ErrMin= 2.31D-03
 ErrMax= 2.31D-03  0.00D+00 EMaxC= 1.00D-01 BMatC= 4.38D-04 BMatP= 8.97D-04
 IDIUse=3 WtCom= 9.77D-01 WtEn= 2.31D-02
 Rare condition: small coef for last iteration:  0.000D+00
 Coeff-Com:  0.598D+00-0.178D+00 0.403D+00-0.523D+00 0.699D+00
 Coeff-En:   0.000D+00 0.000D+00 0.000D+00 0.000D+00 0.100D+01
 Coeff:      0.598D+00-0.178D+00 0.403D+00-0.523D+00 0.699D+00
 Gap=     0.121 Goal=   None    Shift=    0.000
 Gap=     0.056 Goal=   None    Shift=    0.000
 RMSDP=4.72D-04 MaxDP=7.82D-03 DE= 2.61D-03 OVMax= 5.36D-02

 Cycle  16  Pass 1  IDiag  1:
 E= -1887.61289534684     Delta-E=       -0.001204521315 Rises=F Damp=F
 DIIS: error= 2.40D-03 at cycle  16 NSaved=   6.
 NSaved= 6 IEnMin= 4 EnMin= -1887.61429651137     IErMin= 5 ErrMin= 2.31D-03
 ErrMax= 2.40D-03  0.00D+00 EMaxC= 1.00D-01 BMatC= 6.24D-04 BMatP= 4.38D-04
 IDIUse=3 WtCom= 9.77D-01 WtEn= 2.31D-02
 Coeff-Com:  0.107D+01-0.111D+00 0.598D-01-0.140D+01 0.475D+01-0.336D+01
 Coeff-En:   0.000D+00 0.000D+00 0.000D+00 0.000D+00 0.000D+00 0.100D+01
 Coeff:      0.104D+01-0.109D+00 0.585D-01-0.137D+01 0.464D+01-0.326D+01
 Gap=     0.112 Goal=   None    Shift=    0.000
 Gap=     0.080 Goal=   None    Shift=    0.000
 RMSDP=1.63D-03 MaxDP=2.78D-02 DE=-1.20D-03 OVMax= 2.33D-01

 Cycle  17  Pass 1  IDiag  1:
 E= -1887.60786795992     Delta-E=        0.005027386923 Rises=F Damp=F
 DIIS: error= 3.21D-03 at cycle  17 NSaved=   7.
 NSaved= 7 IEnMin= 4 EnMin= -1887.61429651137     IErMin= 5 ErrMin= 2.31D-03
 ErrMax= 3.21D-03  0.00D+00 EMaxC= 1.00D-01 BMatC= 1.61D-03 BMatP= 4.38D-04
 IDIUse=3 WtCom= 9.77D-01 WtEn= 2.31D-02
 Rare condition: small coef for last iteration:  0.000D+00
 Coeff-Com:  0.107D+01-0.128D+00 0.101D+00-0.144D+01 0.471D+01-0.342D+01
 Coeff-Com:  0.106D+00
 Coeff-En:   0.000D+00 0.000D+00 0.000D+00 0.000D+00 0.000D+00 0.000D+00
 Coeff-En:   0.100D+01
 Coeff:      0.107D+01-0.128D+00 0.101D+00-0.144D+01 0.471D+01-0.342D+01
 Coeff:      0.106D+00
 Gap=     0.112 Goal=   None    Shift=    0.000
 Gap=     0.081 Goal=   None    Shift=    0.000
 RMSDP=1.52D-04 MaxDP=2.67D-03 DE= 5.03D-03 OVMax= 2.15D-02

 Cycle  18  Pass 1  IDiag  1:
 E= -1887.60731306235     Delta-E=        0.000554897564 Rises=F Damp=F
 DIIS: error= 3.54D-03 at cycle  18 NSaved=   8.
 NSaved= 8 IEnMin= 4 EnMin= -1887.61429651137     IErMin= 5 ErrMin= 2.31D-03
 ErrMax= 3.54D-03  0.00D+00 EMaxC= 1.00D-01 BMatC= 1.97D-03 BMatP= 4.38D-04
 IDIUse=3 WtCom= 9.77D-01 WtEn= 2.31D-02
 Rare condition: small coef for last iteration:  0.000D+00
 Coeff-Com:  0.798D+00 0.482D+00-0.227D+00-0.109D+01 0.355D+01-0.283D+01
 Coeff-Com:  0.586D+01-0.555D+01
 Coeff-En:   0.000D+00 0.000D+00 0.000D+00 0.000D+00 0.000D+00 0.000D+00
 Coeff-En:   0.000D+00 0.100D+01
 Coeff:      0.798D+00 0.482D+00-0.227D+00-0.109D+01 0.355D+01-0.283D+01
 Coeff:      0.586D+01-0.555D+01
 Gap=     0.112 Goal=   None    Shift=    0.000
 Gap=     0.082 Goal=   None    Shift=    0.000
 RMSDP=2.37D-04 MaxDP=4.40D-03 DE= 5.55D-04 OVMax= 2.52D-02

 Cycle  19  Pass 1  IDiag  1:
 E= -1887.60776141349     Delta-E=       -0.000448351136 Rises=F Damp=F
 DIIS: error= 3.46D-03 at cycle  19 NSaved=   9.
 NSaved= 9 IEnMin= 4 EnMin= -1887.61429651137     IErMin= 5 ErrMin= 2.31D-03
 ErrMax= 3.46D-03  0.00D+00 EMaxC= 1.00D-01 BMatC= 1.94D-03 BMatP= 4.38D-04
 IDIUse=3 WtCom= 9.77D-01 WtEn= 2.31D-02
 Coeff-Com:  0.757D+00-0.556D-01-0.744D-01-0.111D+01 0.318D+01-0.290D+01
 Coeff-Com:  0.852D+01-0.933D+01 0.202D+01
 Coeff-En:   0.000D+00 0.000D+00 0.000D+00 0.000D+00 0.000D+00 0.000D+00
 Coeff-En:   0.000D+00 0.000D+00 0.100D+01
 Coeff:      0.740D+00-0.544D-01-0.727D-01-0.108D+01 0.311D+01-0.283D+01
 Coeff:      0.832D+01-0.912D+01 0.199D+01
 Gap=     0.112 Goal=   None    Shift=    0.000
 Gap=     0.077 Goal=   None    Shift=    0.000
 RMSDP=2.66D-04 MaxDP=6.16D-03 DE=-4.48D-04 OVMax= 2.31D-02

 Cycle  20  Pass 1  IDiag  1:
 E= -1887.60813079684     Delta-E=       -0.000369383349 Rises=F Damp=F
 DIIS: error= 3.39D-03 at cycle  20 NSaved=  10.
 NSaved=10 IEnMin= 4 EnMin= -1887.61429651137     IErMin= 5 ErrMin= 2.31D-03
 ErrMax= 3.39D-03  0.00D+00 EMaxC= 1.00D-01 BMatC= 2.06D-03 BMatP= 4.38D-04
 IDIUse=3 WtCom= 9.77D-01 WtEn= 2.31D-02
 Coeff-Com:  0.866D+00-0.126D+00-0.204D+00-0.968D+00 0.345D+01-0.287D+01
 Coeff-Com:  0.817D+01-0.856D+01-0.423D+00 0.166D+01
 Coeff-En:   0.000D+00 0.000D+00 0.000D+00 0.000D+00 0.000D+00 0.000D+00
 Coeff-En:   0.000D+00 0.000D+00 0.000D+00 0.100D+01
 Coeff:      0.846D+00-0.123D+00-0.199D+00-0.945D+00 0.337D+01-0.280D+01
 Coeff:      0.798D+01-0.836D+01-0.413D+00 0.164D+01
 Gap=     0.115 Goal=   None    Shift=    0.000
 Gap=     0.074 Goal=   None    Shift=    0.000
 RMSDP=6.34D-04 MaxDP=1.17D-02 DE=-3.69D-04 OVMax= 8.87D-02

 Cycle  21  Pass 1  IDiag  1:
 E= -1887.61010730957     Delta-E=       -0.001976512735 Rises=F Damp=F
 DIIS: error= 2.61D-03 at cycle  21 NSaved=  11.
 NSaved=11 IEnMin= 4 EnMin= -1887.61429651137     IErMin= 5 ErrMin= 2.31D-03
 ErrMax= 2.61D-03  0.00D+00 EMaxC= 1.00D-01 BMatC= 1.38D-03 BMatP= 4.38D-04
 IDIUse=3 WtCom= 9.77D-01 WtEn= 2.31D-02
 Coeff-Com:  0.107D+01 0.484D-01-0.182D+00-0.128D+01 0.424D+01-0.355D+01
 Coeff-Com:  0.149D+01-0.185D+01 0.132D+01-0.280D+01 0.249D+01
 Coeff-En:   0.000D+00 0.000D+00 0.000D+00 0.000D+00 0.000D+00 0.000D+00
 Coeff-En:   0.000D+00 0.000D+00 0.000D+00 0.000D+00 0.100D+01
 Coeff:      0.105D+01 0.473D-01-0.178D+00-0.125D+01 0.415D+01-0.347D+01
 Coeff:      0.145D+01-0.181D+01 0.129D+01-0.274D+01 0.246D+01
 Gap=     0.115 Goal=   None    Shift=    0.000
 Gap=     0.068 Goal=   None    Shift=    0.000
 RMSDP=2.04D-04 MaxDP=2.41D-03 DE=-1.98D-03 OVMax= 2.61D-02

 Cycle  22  Pass 1  IDiag  1:
 E= -1887.60961503001     Delta-E=        0.000492279559 Rises=F Damp=F
 DIIS: error= 2.86D-03 at cycle  22 NSaved=  12.
 NSaved=12 IEnMin= 4 EnMin= -1887.61429651137     IErMin= 5 ErrMin= 2.31D-03
 ErrMax= 2.86D-03  0.00D+00 EMaxC= 1.00D-01 BMatC= 1.56D-03 BMatP= 4.38D-04
 IDIUse=3 WtCom= 9.77D-01 WtEn= 2.31D-02
 Rare condition: small coef for last iteration:  0.000D+00
 Coeff-Com:  0.107D+01 0.264D-01-0.128D+00-0.131D+01 0.416D+01-0.344D+01
 Coeff-Com:  0.680D+00-0.149D+01 0.186D+01-0.314D+01 0.234D+01 0.360D+00
 Coeff-En:   0.000D+00 0.000D+00 0.000D+00 0.000D+00 0.000D+00 0.000D+00
 Coeff-En:   0.000D+00 0.000D+00 0.000D+00 0.000D+00 0.000D+00 0.100D+01
 Coeff:      0.107D+01 0.264D-01-0.128D+00-0.131D+01 0.416D+01-0.344D+01
 Coeff:      0.680D+00-0.149D+01 0.186D+01-0.314D+01 0.234D+01 0.360D+00
 Gap=     0.115 Goal=   None    Shift=    0.000
 Gap=     0.066 Goal=   None    Shift=    0.000
 RMSDP=8.38D-05 MaxDP=1.61D-03 DE= 4.92D-04 OVMax= 1.12D-02

 Cycle  23  Pass 1  IDiag  1:
 E= -1887.60980026351     Delta-E=       -0.000185233497 Rises=F Damp=F
 DIIS: error= 2.87D-03 at cycle  23 NSaved=  13.
 NSaved=13 IEnMin= 4 EnMin= -1887.61429651137     IErMin= 5 ErrMin= 2.31D-03
 ErrMax= 2.87D-03  0.00D+00 EMaxC= 1.00D-01 BMatC= 1.61D-03 BMatP= 4.38D-04
 IDIUse=3 WtCom= 9.77D-01 WtEn= 2.31D-02
 Coeff-Com:  0.100D+01 0.388D-01-0.171D+00-0.124D+01 0.403D+01-0.340D+01
 Coeff-Com:  0.141D+01-0.239D+01 0.222D+01-0.330D+01 0.234D+01 0.203D+01
 Coeff-Com: -0.157D+01
 Coeff-En:   0.000D+00 0.000D+00 0.000D+00 0.000D+00 0.000D+00 0.000D+00
 Coeff-En:   0.000D+00 0.000D+00 0.000D+00 0.000D+00 0.000D+00 0.000D+00
 Coeff-En:   0.100D+01
 Coeff:      0.978D+00 0.379D-01-0.167D+00-0.121D+01 0.394D+01-0.333D+01
 Coeff:      0.138D+01-0.233D+01 0.217D+01-0.322D+01 0.229D+01 0.198D+01
 Coeff:     -0.151D+01
 Gap=     0.115 Goal=   None    Shift=    0.000
 Gap=     0.068 Goal=   None    Shift=    0.000
 RMSDP=5.60D-05 MaxDP=1.13D-03 DE=-1.85D-04 OVMax= 7.23D-03

 Cycle  24  Pass 1  IDiag  1:
 E= -1887.60971250437     Delta-E=        0.000087759145 Rises=F Damp=F
 DIIS: error= 2.81D-03 at cycle  24 NSaved=  14.
 NSaved=14 IEnMin= 4 EnMin= -1887.61429651137     IErMin= 5 ErrMin= 2.31D-03
 ErrMax= 2.81D-03  0.00D+00 EMaxC= 1.00D-01 BMatC= 1.53D-03 BMatP= 4.38D-04
 IDIUse=3 WtCom= 9.77D-01 WtEn= 2.31D-02
 Large coefficients: NSaved= 14 BigCof=   12.61 CofMax=   10.00 Det=-2.97D-08
 Inversion failed.  Reducing to 13 matrices.
 Rare condition: small coef for last iteration:  0.000D+00
 Coeff-Com:  0.107D+01-0.146D-01-0.449D+00-0.125D+01 0.520D+01-0.404D+01
 Coeff-Com: -0.458D+00 0.107D+01-0.356D+01 0.183D+01 0.156D+01-0.825D+01
 Coeff-Com:  0.829D+01
 Coeff-En:   0.000D+00 0.000D+00 0.000D+00 0.000D+00 0.000D+00 0.000D+00
 Coeff-En:   0.000D+00 0.000D+00 0.000D+00 0.000D+00 0.000D+00 0.000D+00
 Coeff-En:   0.100D+01
 Coeff:      0.107D+01-0.146D-01-0.449D+00-0.125D+01 0.520D+01-0.404D+01
 Coeff:     -0.458D+00 0.107D+01-0.356D+01 0.183D+01 0.156D+01-0.825D+01
 Coeff:      0.829D+01
 Gap=     0.114 Goal=   None    Shift=    0.000
 Gap=     0.071 Goal=   None    Shift=    0.000
 RMSDP=1.61D-04 MaxDP=3.51D-03 DE= 8.78D-05 OVMax= 1.98D-02

 Cycle  25  Pass 1  IDiag  1:
 E= -1887.60920472189     Delta-E=        0.000507782479 Rises=F Damp=F
 DIIS: error= 3.11D-03 at cycle  25 NSaved=  14.
 NSaved=14 IEnMin= 4 EnMin= -1887.61429651137     IErMin= 5 ErrMin= 2.31D-03
 ErrMax= 3.11D-03  0.00D+00 EMaxC= 1.00D-01 BMatC= 1.89D-03 BMatP= 4.38D-04
 IDIUse=3 WtCom= 9.77D-01 WtEn= 2.31D-02
 Large coefficients: NSaved= 14 BigCof=   11.78 CofMax=   10.00 Det=-4.12D-08
 Inversion failed.  Reducing to 13 matrices.
 Large coefficients: NSaved= 13 BigCof=   11.51 CofMax=   10.00 Det=-4.36D-08
 Inversion failed.  Reducing to 12 matrices.
 Large coefficients: NSaved= 12 BigCof=   10.98 CofMax=   10.00 Det=-4.46D-08
 Inversion failed.  Reducing to 11 matrices.
 Large coefficients: NSaved= 11 BigCof=   11.08 CofMax=   10.00 Det=-4.54D-08
 Inversion failed.  Reducing to 10 matrices.
 Large coefficients: NSaved= 10 BigCof=   17.43 CofMax=   10.00 Det=-1.19D-07
 Inversion failed.  Reducing to  9 matrices.
 Rare condition: small coef for last iteration:  0.000D+00
 Coeff-Com:  0.122D+01 0.324D+00-0.148D+01 0.338D+01-0.280D+01 0.101D+01
 Coeff-Com:  0.807D+01-0.694D+01-0.179D+01
 Coeff-En:   0.000D+00 0.000D+00 0.000D+00 0.000D+00 0.000D+00 0.000D+00
 Coeff-En:   0.000D+00 0.000D+00 0.100D+01
 Coeff:      0.122D+01 0.324D+00-0.148D+01 0.338D+01-0.280D+01 0.101D+01
 Coeff:      0.807D+01-0.694D+01-0.179D+01
 Gap=     0.115 Goal=   None    Shift=    0.000
 Gap=     0.075 Goal=   None    Shift=    0.000
 RMSDP=3.21D-04 MaxDP=5.66D-03 DE= 5.08D-04 OVMax= 2.21D-02

 Cycle  26  Pass 1  IDiag  1:
 E= -1887.60906161614     Delta-E=        0.000143105750 Rises=F Damp=F
 DIIS: error= 2.81D-03 at cycle  26 NSaved=  10.
 NSaved=10 IEnMin= 3 EnMin= -1887.61429651137     IErMin= 4 ErrMin= 2.31D-03
 ErrMax= 2.81D-03  0.00D+00 EMaxC= 1.00D-01 BMatC= 1.36D-03 BMatP= 4.38D-04
 IDIUse=3 WtCom= 9.77D-01 WtEn= 2.31D-02
 Rare condition: small coef for last iteration:  0.000D+00
 Coeff-Com:  0.128D+01 0.256D+00-0.150D+01 0.352D+01-0.250D+01 0.344D-01
 Coeff-Com:  0.935D+01-0.451D+01-0.298D+01-0.195D+01
 Coeff-En:   0.000D+00 0.000D+00 0.000D+00 0.000D+00 0.000D+00 0.000D+00
 Coeff-En:   0.000D+00 0.000D+00 0.000D+00 0.100D+01
 Coeff:      0.128D+01 0.256D+00-0.150D+01 0.352D+01-0.250D+01 0.344D-01
 Coeff:      0.935D+01-0.451D+01-0.298D+01-0.195D+01
 Gap=     0.118 Goal=   None    Shift=    0.000
 Gap=     0.061 Goal=   None    Shift=    0.000
 RMSDP=9.15D-04 MaxDP=1.70D-02 DE= 1.43D-04 OVMax= 1.30D-01

 Cycle  27  Pass 1  IDiag  1:
 E= -1887.61167368302     Delta-E=       -0.002612066881 Rises=F Damp=F
 DIIS: error= 2.25D-03 at cycle  27 NSaved=  11.
 NSaved=11 IEnMin= 3 EnMin= -1887.61429651137     IErMin=11 ErrMin= 2.25D-03
 ErrMax= 2.25D-03  0.00D+00 EMaxC= 1.00D-01 BMatC= 1.03D-03 BMatP= 4.38D-04
 IDIUse=3 WtCom= 9.77D-01 WtEn= 2.31D-02
 Coeff-Com:  0.129D+01 0.184D+00-0.151D+01 0.411D+01-0.316D+01 0.695D+00
 Coeff-Com:  0.564D+01-0.624D+01 0.182D+00-0.151D+01 0.131D+01
 Coeff-En:   0.000D+00 0.000D+00 0.000D+00 0.000D+00 0.000D+00 0.000D+00
 Coeff-En:   0.000D+00 0.000D+00 0.000D+00 0.000D+00 0.100D+01
 Coeff:      0.126D+01 0.179D+00-0.147D+01 0.402D+01-0.309D+01 0.679D+00
 Coeff:      0.551D+01-0.609D+01 0.177D+00-0.148D+01 0.131D+01
 Gap=     0.118 Goal=   None    Shift=    0.000
 Gap=     0.060 Goal=   None    Shift=    0.000
 RMSDP=1.68D-04 MaxDP=3.15D-03 DE=-2.61D-03 OVMax= 2.21D-02

 Cycle  28  Pass 1  IDiag  1:
 E= -1887.61128501491     Delta-E=        0.000388668105 Rises=F Damp=F
 DIIS: error= 2.24D-03 at cycle  28 NSaved=  12.
 NSaved=12 IEnMin= 3 EnMin= -1887.61429651137     IErMin=12 ErrMin= 2.24D-03
 ErrMax= 2.24D-03  0.00D+00 EMaxC= 1.00D-01 BMatC= 1.01D-03 BMatP= 4.38D-04
 IDIUse=3 WtCom= 9.77D-01 WtEn= 2.31D-02
 Rare condition: small coef for last iteration:  0.000D+00
 Coeff-Com:  0.133D+01 0.283D+00-0.165D+01 0.448D+01-0.323D+01 0.660D+00
 Coeff-Com:  0.903D+01-0.961D+01 0.577D+00-0.166D+01 0.219D+01-0.140D+01
 Coeff-En:   0.000D+00 0.000D+00 0.000D+00 0.000D+00 0.000D+00 0.000D+00
 Coeff-En:   0.000D+00 0.000D+00 0.000D+00 0.000D+00 0.000D+00 0.100D+01
 Coeff:      0.133D+01 0.283D+00-0.165D+01 0.448D+01-0.323D+01 0.660D+00
 Coeff:      0.903D+01-0.961D+01 0.577D+00-0.166D+01 0.219D+01-0.140D+01
 Gap=     0.118 Goal=   None    Shift=    0.000
 Gap=     0.059 Goal=   None    Shift=    0.000
 RMSDP=6.05D-05 MaxDP=8.11D-04 DE= 3.89D-04 OVMax= 5.73D-03

 Cycle  29  Pass 1  IDiag  1:
 E= -1887.61130240080     Delta-E=       -0.000017385882 Rises=F Damp=F
 DIIS: error= 2.29D-03 at cycle  29 NSaved=  13.
 NSaved=13 IEnMin= 3 EnMin= -1887.61429651137     IErMin=12 ErrMin= 2.24D-03
 ErrMax= 2.29D-03  0.00D+00 EMaxC= 1.00D-01 BMatC= 1.08D-03 BMatP= 4.38D-04
 IDIUse=3 WtCom= 9.77D-01 WtEn= 2.31D-02
 Coeff-Com:  0.136D+01 0.234D+00-0.168D+01 0.440D+01-0.311D+01 0.357D+00
 Coeff-Com:  0.591D+01-0.580D+01 0.201D+00-0.166D+01 0.196D+01-0.312D+01
 Coeff-Com:  0.194D+01
 Coeff-En:   0.000D+00 0.000D+00 0.000D+00 0.000D+00 0.000D+00 0.000D+00
 Coeff-En:   0.000D+00 0.000D+00 0.000D+00 0.000D+00 0.000D+00 0.000D+00
 Coeff-En:   0.100D+01
 Coeff:      0.133D+01 0.229D+00-0.164D+01 0.430D+01-0.303D+01 0.348D+00
 Coeff:      0.577D+01-0.567D+01 0.196D+00-0.162D+01 0.192D+01-0.304D+01
 Coeff:      0.191D+01
 Gap=     0.118 Goal=   None    Shift=    0.000
 Gap=     0.060 Goal=   None    Shift=    0.000
 RMSDP=7.33D-05 MaxDP=1.19D-03 DE=-1.74D-05 OVMax= 7.40D-03

 Cycle  30  Pass 1  IDiag  1:
 E= -1887.61115896677     Delta-E=        0.000143434029 Rises=F Damp=F
 DIIS: error= 2.27D-03 at cycle  30 NSaved=  14.
 NSaved=14 IEnMin= 3 EnMin= -1887.61429651137     IErMin=12 ErrMin= 2.24D-03
 ErrMax= 2.27D-03  0.00D+00 EMaxC= 1.00D-01 BMatC= 1.04D-03 BMatP= 4.38D-04
 IDIUse=3 WtCom= 9.77D-01 WtEn= 2.31D-02
 Rare condition: small coef for last iteration:  0.000D+00
 Coeff-Com:  0.136D+01 0.236D+00-0.168D+01 0.441D+01-0.310D+01 0.345D+00
 Coeff-Com:  0.592D+01-0.576D+01 0.171D+00-0.166D+01 0.196D+01-0.317D+01
 Coeff-Com:  0.208D+01-0.109D+00
 Coeff-En:   0.000D+00 0.000D+00 0.000D+00 0.000D+00 0.000D+00 0.000D+00
 Coeff-En:   0.000D+00 0.000D+00 0.000D+00 0.000D+00 0.000D+00 0.000D+00
 Coeff-En:   0.000D+00 0.100D+01
 Coeff:      0.136D+01 0.236D+00-0.168D+01 0.441D+01-0.310D+01 0.345D+00
 Coeff:      0.592D+01-0.576D+01 0.171D+00-0.166D+01 0.196D+01-0.317D+01
 Coeff:      0.208D+01-0.109D+00
 Gap=     0.118 Goal=   None    Shift=    0.000
 Gap=     0.060 Goal=   None    Shift=    0.000
 RMSDP=1.84D-05 MaxDP=3.13D-04 DE= 1.43D-04 OVMax= 1.81D-03

 Cycle  31  Pass 1  IDiag  1:
 E= -1887.61109873065     Delta-E=        0.000060236121 Rises=F Damp=F
 DIIS: error= 2.35D-03 at cycle  31 NSaved=  15.
 NSaved=15 IEnMin= 3 EnMin= -1887.61429651137     IErMin=12 ErrMin= 2.24D-03
 ErrMax= 2.35D-03  0.00D+00 EMaxC= 1.00D-01 BMatC= 1.12D-03 BMatP= 4.38D-04
 IDIUse=3 WtCom= 9.77D-01 WtEn= 2.31D-02
 Large coefficients: NSaved= 15 BigCof=   17.80 CofMax=   10.00 Det=-1.21D-08
 Inversion failed.  Reducing to 14 matrices.
 Large coefficients: NSaved= 14 BigCof=   31.44 CofMax=   10.00 Det=-1.59D-08
 Inversion failed.  Reducing to 13 matrices.
 Large coefficients: NSaved= 13 BigCof=   29.55 CofMax=   10.00 Det=-1.68D-08
 Inversion failed.  Reducing to 12 matrices.
 Large coefficients: NSaved= 12 BigCof=   27.68 CofMax=   10.00 Det=-1.75D-08
 Inversion failed.  Reducing to 11 matrices.
 Large coefficients: NSaved= 11 BigCof=   26.59 CofMax=   10.00 Det=-2.45D-08
 Inversion failed.  Reducing to 10 matrices.
 Large coefficients: NSaved= 10 BigCof=   26.76 CofMax=   10.00 Det=-2.46D-08
 Inversion failed.  Reducing to  9 matrices.
 Large coefficients: NSaved=  9 BigCof=   20.81 CofMax=   10.00 Det=-2.49D-08
 Inversion failed.  Reducing to  8 matrices.
 Large coefficients: NSaved=  8 BigCof=   20.09 CofMax=   10.00 Det=-2.52D-08
 Inversion failed.  Reducing to  7 matrices.
 Large coefficients: NSaved=  7 BigCof=   13.80 CofMax=   10.00 Det=-7.68D-08
 Inversion failed.  Reducing to  6 matrices.
 Large coefficients: NSaved=  6 BigCof=   10.28 CofMax=   10.00 Det=-7.90D-08
 Inversion failed.  Reducing to  5 matrices.
 Large coefficients: NSaved=  5 BigCof=   10.36 CofMax=   10.00 Det=-7.90D-08
 Inversion failed.  Reducing to  4 matrices.
 Large coefficients: NSaved=  4 BigCof=   19.64 CofMax=   10.00 Det=-9.23D-07
 Inversion failed.  Reducing to  3 matrices.
 Large coefficients: NSaved=  3 BigCof=   19.16 CofMax=   10.00 Det=-1.65D-06
 Inversion failed.  Reducing to  2 matrices.
 Large coefficients: NSaved=  2 BigCof=   20.04 CofMax=   10.00 Det=-2.17D-06
 Coeff-Com:  0.200D+02-0.190D+02
 Coeff-En:   0.000D+00 0.100D+01
 Coeff:      0.196D+02-0.186D+02
 Gap=     0.122 Goal=   None    Shift=    0.000
 Gap=     0.062 Goal=   None    Shift=    0.000
 RMSDP=9.98D-04 MaxDP=1.74D-02 DE= 6.02D-05 OVMax= 1.14D-01

 Cycle  32  Pass 1  IDiag  1:
 E= -1887.61359565851     Delta-E=       -0.002496927861 Rises=F Damp=F
 DIIS: error= 2.53D-03 at cycle  32 NSaved=   3.
 NSaved= 3 IEnMin= 3 EnMin= -1887.61359565851     IErMin= 1 ErrMin= 2.27D-03
 ErrMax= 2.53D-03  0.00D+00 EMaxC= 1.00D-01 BMatC= 6.33D-04 BMatP= 1.04D-03
 IDIUse=3 WtCom= 9.77D-01 WtEn= 2.31D-02
 Large coefficients: NSaved=  3 BigCof=   20.63 CofMax=   10.00 Det=-8.85D-07
 Inversion failed.  Reducing to  2 matrices.
 Coeff-Com: -0.141D+00 0.114D+01
 Coeff-En:   0.000D+00 0.100D+01
 Coeff:     -0.138D+00 0.114D+01
 Gap=     0.126 Goal=   None    Shift=    0.000
 Gap=     0.060 Goal=   None    Shift=    0.000
 RMSDP=8.26D-04 MaxDP=1.62D-02 DE=-2.50D-03 OVMax= 8.68D-02

 Cycle  33  Pass 1  IDiag  1:
 E= -1887.61639486717     Delta-E=       -0.002799208663 Rises=F Damp=F
 DIIS: error= 3.43D-03 at cycle  33 NSaved=   3.
 NSaved= 3 IEnMin= 3 EnMin= -1887.61639486717     IErMin= 1 ErrMin= 2.35D-03
 ErrMax= 3.43D-03  0.00D+00 EMaxC= 1.00D-01 BMatC= 5.51D-04 BMatP= 6.33D-04
 IDIUse=3 WtCom= 9.77D-01 WtEn= 2.31D-02
 Coeff-Com:  0.141D+00 0.234D+00 0.625D+00
 Coeff-En:   0.000D+00 0.000D+00 0.100D+01
 Coeff:      0.137D+00 0.229D+00 0.634D+00
 Gap=     0.126 Goal=   None    Shift=    0.000
 Gap=     0.070 Goal=   None    Shift=    0.000
 RMSDP=3.98D-04 MaxDP=6.73D-03 DE=-2.80D-03 OVMax= 5.26D-02

 Cycle  34  Pass 1  IDiag  1:
 E= -1887.61794377808     Delta-E=       -0.001548910910 Rises=F Damp=F
 DIIS: error= 3.18D-03 at cycle  34 NSaved=   4.
 NSaved= 4 IEnMin= 4 EnMin= -1887.61794377808     IErMin= 1 ErrMin= 2.35D-03
 ErrMax= 3.18D-03  0.00D+00 EMaxC= 1.00D-01 BMatC= 8.24D-04 BMatP= 5.51D-04
 IDIUse=3 WtCom= 9.77D-01 WtEn= 2.31D-02
 Coeff-Com:  0.204D+00 0.717D+00 0.948D+00-0.869D+00
 Coeff-En:   0.000D+00 0.000D+00 0.000D+00 0.100D+01
 Coeff:      0.199D+00 0.700D+00 0.926D+00-0.825D+00
 Gap=     0.123 Goal=   None    Shift=    0.000
 Gap=     0.043 Goal=   None    Shift=    0.000
 RMSDP=1.14D-03 MaxDP=1.94D-02 DE=-1.55D-03 OVMax= 1.44D-01

 Cycle  35  Pass 1  IDiag  1:
 E= -1887.61414485541     Delta-E=        0.003798922673 Rises=F Damp=F
 DIIS: error= 2.79D-03 at cycle  35 NSaved=   5.
 NSaved= 5 IEnMin= 4 EnMin= -1887.61794377808     IErMin= 1 ErrMin= 2.35D-03
 ErrMax= 2.79D-03  0.00D+00 EMaxC= 1.00D-01 BMatC= 5.10D-04 BMatP= 5.51D-04
 IDIUse=3 WtCom= 9.77D-01 WtEn= 2.31D-02
 Rare condition: small coef for last iteration:  0.000D+00
 Coeff-Com:  0.880D-01-0.256D+00 0.722D+00-0.787D+00 0.123D+01
 Coeff-En:   0.000D+00 0.000D+00 0.000D+00 0.000D+00 0.100D+01
 Coeff:      0.880D-01-0.256D+00 0.722D+00-0.787D+00 0.123D+01
 Gap=     0.124 Goal=   None    Shift=    0.000
 Gap=     0.048 Goal=   None    Shift=    0.000
 RMSDP=7.70D-04 MaxDP=1.42D-02 DE= 3.80D-03 OVMax= 9.15D-02

 Cycle  36  Pass 1  IDiag  1:
 E= -1887.61525730817     Delta-E=       -0.001112452760 Rises=F Damp=F
 DIIS: error= 2.90D-03 at cycle  36 NSaved=   6.
 NSaved= 6 IEnMin= 4 EnMin= -1887.61794377808     IErMin= 1 ErrMin= 2.35D-03
 ErrMax= 2.90D-03  0.00D+00 EMaxC= 1.00D-01 BMatC= 8.11D-04 BMatP= 5.10D-04
 IDIUse=3 WtCom= 9.77D-01 WtEn= 2.31D-02
 Coeff-Com:  0.193D+00-0.899D+00 0.317D+00-0.103D+01 0.351D+01-0.110D+01
 Coeff-En:   0.000D+00 0.000D+00 0.000D+00 0.000D+00 0.000D+00 0.100D+01
 Coeff:      0.188D+00-0.879D+00 0.309D+00-0.100D+01 0.343D+01-0.105D+01
 Gap=     0.121 Goal=   None    Shift=    0.000
 Gap=     0.046 Goal=   None    Shift=    0.000
 RMSDP=7.15D-04 MaxDP=1.63D-02 DE=-1.11D-03 OVMax= 1.02D-01

 Cycle  37  Pass 1  IDiag  1:
 E= -1887.61312008072     Delta-E=        0.002137227448 Rises=F Damp=F
 DIIS: error= 2.34D-03 at cycle  37 NSaved=   7.
 NSaved= 7 IEnMin= 4 EnMin= -1887.61794377808     IErMin= 7 ErrMin= 2.34D-03
 ErrMax= 2.34D-03  0.00D+00 EMaxC= 1.00D-01 BMatC= 7.85D-04 BMatP= 5.10D-04
 IDIUse=3 WtCom= 9.77D-01 WtEn= 2.31D-02
 Rare condition: small coef for last iteration:  0.000D+00
 Coeff-Com: -0.201D+00-0.261D+00 0.312D+00-0.119D+01 0.321D+01-0.233D+01
 Coeff-Com:  0.146D+01
 Coeff-En:   0.000D+00 0.000D+00 0.000D+00 0.000D+00 0.000D+00 0.000D+00
 Coeff-En:   0.100D+01
 Coeff:     -0.201D+00-0.261D+00 0.312D+00-0.119D+01 0.321D+01-0.233D+01
 Coeff:      0.146D+01
 Gap=     0.118 Goal=   None    Shift=    0.000
 Gap=     0.040 Goal=   None    Shift=    0.000
 RMSDP=1.06D-03 MaxDP=2.00D-02 DE= 2.14D-03 OVMax= 1.42D-01

 Cycle  38  Pass 1  IDiag  1:
 E= -1887.61029563220     Delta-E=        0.002824448514 Rises=F Damp=F
 DIIS: error= 3.14D-03 at cycle  38 NSaved=   8.
 NSaved= 8 IEnMin= 4 EnMin= -1887.61794377808     IErMin= 7 ErrMin= 2.34D-03
 ErrMax= 3.14D-03  0.00D+00 EMaxC= 1.00D-01 BMatC= 1.34D-03 BMatP= 5.10D-04
 IDIUse=3 WtCom= 9.77D-01 WtEn= 2.31D-02
 Rare condition: small coef for last iteration:  0.000D+00
 Coeff-Com:  0.472D+00-0.166D+01 0.757D-01-0.132D+01 0.516D+01-0.327D+01
 Coeff-Com:  0.236D+01-0.820D+00
 Coeff-En:   0.000D+00 0.000D+00 0.000D+00 0.000D+00 0.000D+00 0.000D+00
 Coeff-En:   0.000D+00 0.100D+01
 Coeff:      0.472D+00-0.166D+01 0.757D-01-0.132D+01 0.516D+01-0.327D+01
 Coeff:      0.236D+01-0.820D+00
 Gap=     0.117 Goal=   None    Shift=    0.000
 Gap=     0.038 Goal=   None    Shift=    0.000
 RMSDP=2.34D-04 MaxDP=2.98D-03 DE= 2.82D-03 OVMax= 2.30D-02

 Cycle  39  Pass 1  IDiag  1:
 E= -1887.60942547033     Delta-E=        0.000870161873 Rises=F Damp=F
 DIIS: error= 4.84D-03 at cycle  39 NSaved=   9.
 NSaved= 9 IEnMin= 4 EnMin= -1887.61794377808     IErMin= 7 ErrMin= 2.34D-03
 ErrMax= 4.84D-03  0.00D+00 EMaxC= 1.00D-01 BMatC= 2.41D-03 BMatP= 5.10D-04
 IDIUse=3 WtCom= 9.77D-01 WtEn= 2.31D-02
 Rare condition: small coef for last iteration:  0.000D+00
 Coeff-Com:  0.687D+00-0.238D+00-0.908D-01-0.356D+00 0.128D+01-0.203D+01
 Coeff-Com:  0.565D+00 0.454D+01-0.335D+01
 Coeff-En:   0.000D+00 0.000D+00 0.000D+00 0.000D+00 0.000D+00 0.000D+00
 Coeff-En:   0.000D+00 0.000D+00 0.100D+01
 Coeff:      0.687D+00-0.238D+00-0.908D-01-0.356D+00 0.128D+01-0.203D+01
 Coeff:      0.565D+00 0.454D+01-0.335D+01
 Gap=     0.112 Goal=   None    Shift=    0.000
 Gap=     0.056 Goal=   None    Shift=    0.000
 RMSDP=1.18D-03 MaxDP=2.36D-02 DE= 8.70D-04 OVMax= 1.13D-01

 Cycle  40  Pass 1  IDiag  1:
 E= -1887.60704424044     Delta-E=        0.002381229894 Rises=F Damp=F
 DIIS: error= 3.83D-03 at cycle  40 NSaved=  10.
 NSaved=10 IEnMin= 4 EnMin= -1887.61794377808     IErMin= 7 ErrMin= 2.34D-03
 ErrMax= 3.83D-03  0.00D+00 EMaxC= 1.00D-01 BMatC= 2.97D-03 BMatP= 5.10D-04
 IDIUse=3 WtCom= 9.77D-01 WtEn= 2.31D-02
 Rare condition: small coef for last iteration:  0.000D+00
 Coeff-Com:  0.808D+00 0.109D+00-0.658D-01-0.421D+00 0.944D+00-0.191D+01
 Coeff-Com:  0.691D+00 0.399D+01-0.299D+01-0.157D+00
 Coeff-En:   0.000D+00 0.000D+00 0.000D+00 0.000D+00 0.000D+00 0.000D+00
 Coeff-En:   0.000D+00 0.000D+00 0.000D+00 0.100D+01
 Coeff:      0.808D+00 0.109D+00-0.658D-01-0.421D+00 0.944D+00-0.191D+01
 Coeff:      0.691D+00 0.399D+01-0.299D+01-0.157D+00
 Gap=     0.113 Goal=   None    Shift=    0.000
 Gap=     0.042 Goal=   None    Shift=    0.000
 RMSDP=2.13D-04 MaxDP=4.02D-03 DE= 2.38D-03 OVMax= 2.79D-02

 Cycle  41  Pass 1  IDiag  1:
 E= -1887.60768695940     Delta-E=       -0.000642718960 Rises=F Damp=F
 DIIS: error= 3.47D-03 at cycle  41 NSaved=  11.
 NSaved=11 IEnMin= 4 EnMin= -1887.61794377808     IErMin= 7 ErrMin= 2.34D-03
 ErrMax= 3.47D-03  0.00D+00 EMaxC= 1.00D-01 BMatC= 2.53D-03 BMatP= 5.10D-04
 IDIUse=3 WtCom= 9.77D-01 WtEn= 2.31D-02
 Coeff-Com:  0.670D+00 0.189D+00-0.150D+00-0.282D+00 0.633D+00-0.178D+01
 Coeff-Com:  0.963D+00 0.367D+01-0.300D+01-0.158D+01 0.168D+01
 Coeff-En:   0.000D+00 0.000D+00 0.000D+00 0.000D+00 0.000D+00 0.000D+00
 Coeff-En:   0.000D+00 0.000D+00 0.000D+00 0.000D+00 0.100D+01
 Coeff:      0.655D+00 0.184D+00-0.147D+00-0.276D+00 0.619D+00-0.174D+01
 Coeff:      0.941D+00 0.358D+01-0.293D+01-0.154D+01 0.166D+01
 Gap=     0.115 Goal=   None    Shift=    0.000
 Gap=     0.046 Goal=   None    Shift=    0.000
 RMSDP=3.81D-04 MaxDP=5.82D-03 DE=-6.43D-04 OVMax= 4.46D-02

 Cycle  42  Pass 1  IDiag  1:
 E= -1887.60895474939     Delta-E=       -0.001267789999 Rises=F Damp=F
 DIIS: error= 2.87D-03 at cycle  42 NSaved=  12.
 NSaved=12 IEnMin= 4 EnMin= -1887.61794377808     IErMin= 7 ErrMin= 2.34D-03
 ErrMax= 2.87D-03  0.00D+00 EMaxC= 1.00D-01 BMatC= 1.71D-03 BMatP= 5.10D-04
 IDIUse=3 WtCom= 9.77D-01 WtEn= 2.31D-02
 Coeff-Com:  0.633D-01 0.180D+00-0.248D+00-0.274D+00 0.627D+00-0.171D+01
 Coeff-Com:  0.890D+00 0.327D+01-0.258D+01-0.196D+01 0.750D+00 0.198D+01
 Coeff-En:   0.000D+00 0.000D+00 0.000D+00 0.000D+00 0.000D+00 0.000D+00
 Coeff-En:   0.000D+00 0.000D+00 0.000D+00 0.000D+00 0.000D+00 0.100D+01
 Coeff:      0.619D-01 0.176D+00-0.242D+00-0.267D+00 0.612D+00-0.167D+01
 Coeff:      0.869D+00 0.320D+01-0.252D+01-0.191D+01 0.733D+00 0.195D+01
 Gap=     0.114 Goal=   None    Shift=    0.000
 Gap=     0.042 Goal=   None    Shift=    0.000
 RMSDP=1.84D-04 MaxDP=3.11D-03 DE=-1.27D-03 OVMax= 1.25D-02

 Cycle  43  Pass 1  IDiag  1:
 E= -1887.60848872751     Delta-E=        0.000466021885 Rises=F Damp=F
 DIIS: error= 3.35D-03 at cycle  43 NSaved=  13.
 NSaved=13 IEnMin= 4 EnMin= -1887.61794377808     IErMin= 7 ErrMin= 2.34D-03
 ErrMax= 3.35D-03  0.00D+00 EMaxC= 1.00D-01 BMatC= 2.21D-03 BMatP= 5.10D-04
 IDIUse=3 WtCom= 9.77D-01 WtEn= 2.31D-02
 Rare condition: small coef for last iteration:  0.000D+00
 Coeff-Com: -0.349D+00-0.572D-01-0.315D+00-0.274D+00 0.106D+01-0.205D+01
 Coeff-Com:  0.104D+01 0.305D+01-0.237D+01-0.121D+01-0.171D+00 0.408D+01
 Coeff-Com: -0.144D+01
 Coeff-En:   0.000D+00 0.000D+00 0.000D+00 0.000D+00 0.000D+00 0.000D+00
 Coeff-En:   0.000D+00 0.000D+00 0.000D+00 0.000D+00 0.000D+00 0.000D+00
 Coeff-En:   0.100D+01
 Coeff:     -0.349D+00-0.572D-01-0.315D+00-0.274D+00 0.106D+01-0.205D+01
 Coeff:      0.104D+01 0.305D+01-0.237D+01-0.121D+01-0.171D+00 0.408D+01
 Coeff:     -0.144D+01
 Gap=     0.112 Goal=   None    Shift=    0.000
 Gap=     0.042 Goal=   None    Shift=    0.000
 RMSDP=4.42D-04 MaxDP=6.99D-03 DE= 4.66D-04 OVMax= 5.72D-02

 Cycle  44  Pass 1  IDiag  1:
 E= -1887.60676561613     Delta-E=        0.001723111379 Rises=F Damp=F
 DIIS: error= 4.31D-03 at cycle  44 NSaved=  14.
 NSaved=14 IEnMin= 4 EnMin= -1887.61794377808     IErMin= 7 ErrMin= 2.34D-03
 ErrMax= 4.31D-03  0.00D+00 EMaxC= 1.00D-01 BMatC= 3.62D-03 BMatP= 5.10D-04
 IDIUse=3 WtCom= 9.77D-01 WtEn= 2.31D-02
 Rare condition: small coef for last iteration:  0.000D+00
 Coeff-Com: -0.315D+00-0.159D+00-0.361D+00-0.220D+00 0.120D+01-0.208D+01
 Coeff-Com:  0.979D+00 0.303D+01-0.232D+01-0.231D+00-0.414D+00 0.336D+01
 Coeff-Com: -0.607D+00-0.864D+00
 Coeff-En:   0.000D+00 0.000D+00 0.000D+00 0.000D+00 0.000D+00 0.000D+00
 Coeff-En:   0.000D+00 0.000D+00 0.000D+00 0.000D+00 0.000D+00 0.000D+00
 Coeff-En:   0.000D+00 0.100D+01
 Coeff:     -0.315D+00-0.159D+00-0.361D+00-0.220D+00 0.120D+01-0.208D+01
 Coeff:      0.979D+00 0.303D+01-0.232D+01-0.231D+00-0.414D+00 0.336D+01
 Coeff:     -0.607D+00-0.864D+00
 Gap=     0.111 Goal=   None    Shift=    0.000
 Gap=     0.044 Goal=   None    Shift=    0.000
 RMSDP=7.85D-05 MaxDP=1.78D-03 DE= 1.72D-03 OVMax= 6.03D-03

 Cycle  45  Pass 1  IDiag  1:
 E= -1887.60669118914     Delta-E=        0.000074426988 Rises=F Damp=F
 DIIS: error= 4.40D-03 at cycle  45 NSaved=  15.
 NSaved=15 IEnMin= 4 EnMin= -1887.61794377808     IErMin= 7 ErrMin= 2.34D-03
 ErrMax= 4.40D-03  0.00D+00 EMaxC= 1.00D-01 BMatC= 3.69D-03 BMatP= 5.10D-04
 IDIUse=3 WtCom= 9.77D-01 WtEn= 2.31D-02
 Rare condition: small coef for last iteration:  0.000D+00
 Coeff-Com: -0.311D+00-0.145D+00-0.360D+00-0.239D+00 0.121D+01-0.208D+01
 Coeff-Com:  0.988D+00 0.300D+01-0.229D+01 0.379D-01-0.703D+00 0.340D+01
 Coeff-Com: -0.607D+00-0.437D+00-0.466D+00
 Coeff-En:   0.000D+00 0.000D+00 0.000D+00 0.000D+00 0.000D+00 0.000D+00
 Coeff-En:   0.000D+00 0.000D+00 0.000D+00 0.000D+00 0.000D+00 0.000D+00
 Coeff-En:   0.000D+00 0.000D+00 0.100D+01
 Coeff:     -0.311D+00-0.145D+00-0.360D+00-0.239D+00 0.121D+01-0.208D+01
 Coeff:      0.988D+00 0.300D+01-0.229D+01 0.379D-01-0.703D+00 0.340D+01
 Coeff:     -0.607D+00-0.437D+00-0.466D+00
 Gap=     0.111 Goal=   None    Shift=    0.000
 Gap=     0.043 Goal=   None    Shift=    0.000
 RMSDP=1.62D-05 MaxDP=2.74D-04 DE= 7.44D-05 OVMax= 1.61D-03

 Cycle  46  Pass 1  IDiag  1:
 E= -1887.60664321124     Delta-E=        0.000047977901 Rises=F Damp=F
 DIIS: error= 4.41D-03 at cycle  46 NSaved=  16.
 NSaved=16 IEnMin= 4 EnMin= -1887.61794377808     IErMin= 7 ErrMin= 2.34D-03
 ErrMax= 4.41D-03  0.00D+00 EMaxC= 1.00D-01 BMatC= 3.73D-03 BMatP= 5.10D-04
 IDIUse=3 WtCom= 9.77D-01 WtEn= 2.31D-02
 Large coefficients: NSaved= 16 BigCof=   30.25 CofMax=   10.00 Det=-7.48D-09
 Inversion failed.  Reducing to 15 matrices.
 Large coefficients: NSaved= 15 BigCof=   20.97 CofMax=   10.00 Det=-8.71D-09
 Inversion failed.  Reducing to 14 matrices.
 Large coefficients: NSaved= 14 BigCof=   20.51 CofMax=   10.00 Det=-8.98D-09
 Inversion failed.  Reducing to 13 matrices.
 Rare condition: small coef for last iteration:  0.000D+00
 Coeff-Com: -0.137D+00-0.132D+00-0.375D+00-0.196D+00 0.116D+01-0.201D+01
 Coeff-Com:  0.106D+01 0.295D+01-0.234D+01 0.221D+01-0.243D-01 0.995D+00
 Coeff-Com: -0.217D+01
 Coeff-En:   0.000D+00 0.000D+00 0.000D+00 0.000D+00 0.000D+00 0.000D+00
 Coeff-En:   0.000D+00 0.000D+00 0.000D+00 0.000D+00 0.000D+00 0.000D+00
 Coeff-En:   0.100D+01
 Coeff:     -0.137D+00-0.132D+00-0.375D+00-0.196D+00 0.116D+01-0.201D+01
 Coeff:      0.106D+01 0.295D+01-0.234D+01 0.221D+01-0.243D-01 0.995D+00
 Coeff:     -0.217D+01
 Gap=     0.112 Goal=   None    Shift=    0.000
 Gap=     0.047 Goal=   None    Shift=    0.000
 RMSDP=2.38D-04 MaxDP=3.91D-03 DE= 4.80D-05 OVMax= 2.73D-02

 Cycle  47  Pass 1  IDiag  1:
 E= -1887.60754112831     Delta-E=       -0.000897917075 Rises=F Damp=F
 DIIS: error= 3.93D-03 at cycle  47 NSaved=  14.
 NSaved=14 IEnMin= 4 EnMin= -1887.61794377808     IErMin= 7 ErrMin= 2.34D-03
 ErrMax= 3.93D-03  0.00D+00 EMaxC= 1.00D-01 BMatC= 2.95D-03 BMatP= 5.10D-04
 IDIUse=3 WtCom= 9.77D-01 WtEn= 2.31D-02
 Large coefficients: NSaved= 14 BigCof=   10.73 CofMax=   10.00 Det=-8.48D-09
 Inversion failed.  Reducing to 13 matrices.
 Coeff-Com: -0.180D+00-0.185D+00-0.327D+00-0.244D+00 0.125D+01-0.207D+01
 Coeff-Com:  0.100D+01 0.310D+01-0.243D+01 0.210D+01-0.283D+00-0.175D+01
 Coeff-Com:  0.102D+01
 Coeff-En:   0.000D+00 0.000D+00 0.000D+00 0.000D+00 0.000D+00 0.000D+00
 Coeff-En:   0.000D+00 0.000D+00 0.000D+00 0.000D+00 0.000D+00 0.000D+00
 Coeff-En:   0.100D+01
 Coeff:     -0.175D+00-0.181D+00-0.320D+00-0.239D+00 0.122D+01-0.202D+01
 Coeff:      0.980D+00 0.303D+01-0.237D+01 0.205D+01-0.277D+00-0.171D+01
 Coeff:      0.102D+01
 Gap=     0.112 Goal=   None    Shift=    0.000
 Gap=     0.047 Goal=   None    Shift=    0.000
 RMSDP=1.09D-04 MaxDP=1.88D-03 DE=-8.98D-04 OVMax= 1.47D-02

 Cycle  48  Pass 1  IDiag  1:
 E= -1887.60718867506     Delta-E=        0.000352453250 Rises=F Damp=F
 DIIS: error= 3.98D-03 at cycle  48 NSaved=  14.
 NSaved=14 IEnMin= 4 EnMin= -1887.61794377808     IErMin= 7 ErrMin= 2.34D-03
 ErrMax= 3.98D-03  0.00D+00 EMaxC= 1.00D-01 BMatC= 3.03D-03 BMatP= 5.10D-04
 IDIUse=3 WtCom= 9.77D-01 WtEn= 2.31D-02
 Rare condition: small coef for last iteration:  0.000D+00
 Coeff-Com: -0.243D+00 0.439D+00-0.674D+00 0.280D-01 0.581D+00-0.215D+01
 Coeff-Com:  0.121D+01 0.250D+01-0.191D+01 0.288D+01-0.859D+00-0.387D+01
 Coeff-Com: -0.395D+01 0.701D+01
 Coeff-En:   0.000D+00 0.000D+00 0.000D+00 0.000D+00 0.000D+00 0.000D+00
 Coeff-En:   0.000D+00 0.000D+00 0.000D+00 0.000D+00 0.000D+00 0.000D+00
 Coeff-En:   0.000D+00 0.100D+01
 Coeff:     -0.243D+00 0.439D+00-0.674D+00 0.280D-01 0.581D+00-0.215D+01
 Coeff:      0.121D+01 0.250D+01-0.191D+01 0.288D+01-0.859D+00-0.387D+01
 Coeff:     -0.395D+01 0.701D+01
 Gap=     0.110 Goal=   None    Shift=    0.000
 Gap=     0.051 Goal=   None    Shift=    0.000
 RMSDP=4.30D-04 MaxDP=7.26D-03 DE= 3.52D-04 OVMax= 5.60D-02

 Cycle  49  Pass 1  IDiag  1:
 E= -1887.60538913841     Delta-E=        0.001799536658 Rises=F Damp=F
 DIIS: error= 5.17D-03 at cycle  49 NSaved=  15.
 NSaved=15 IEnMin= 4 EnMin= -1887.61794377808     IErMin= 7 ErrMin= 2.34D-03
 ErrMax= 5.17D-03  0.00D+00 EMaxC= 1.00D-01 BMatC= 4.89D-03 BMatP= 5.10D-04
 IDIUse=3 WtCom= 9.77D-01 WtEn= 2.31D-02
 Large coefficients: NSaved= 15 BigCof=   12.01 CofMax=   10.00 Det=-8.15D-08
 Inversion failed.  Reducing to 14 matrices.
 Rare condition: small coef for last iteration:  0.000D+00
 Coeff-Com:  0.223D+00 0.310D+00-0.371D+00-0.148D+00 0.658D+00-0.179D+01
 Coeff-Com:  0.971D+00 0.278D+01-0.228D+01 0.166D+01-0.174D+01-0.937D+00
 Coeff-Com:  0.315D+01-0.149D+01
 Coeff-En:   0.000D+00 0.000D+00 0.000D+00 0.000D+00 0.000D+00 0.000D+00
 Coeff-En:   0.000D+00 0.000D+00 0.000D+00 0.000D+00 0.000D+00 0.000D+00
 Coeff-En:   0.000D+00 0.100D+01
 Coeff:      0.223D+00 0.310D+00-0.371D+00-0.148D+00 0.658D+00-0.179D+01
 Coeff:      0.971D+00 0.278D+01-0.228D+01 0.166D+01-0.174D+01-0.937D+00
 Coeff:      0.315D+01-0.149D+01
 Gap=     0.113 Goal=   None    Shift=    0.000
 Gap=     0.054 Goal=   None    Shift=    0.000
 RMSDP=6.34D-04 MaxDP=1.01D-02 DE= 1.80D-03 OVMax= 8.07D-02

 Cycle  50  Pass 1  IDiag  1:
 E= -1887.60803384926     Delta-E=       -0.002644710851 Rises=F Damp=F
 DIIS: error= 3.50D-03 at cycle  50 NSaved=  15.
 NSaved=15 IEnMin= 4 EnMin= -1887.61794377808     IErMin= 7 ErrMin= 2.34D-03
 ErrMax= 3.50D-03  0.00D+00 EMaxC= 1.00D-01 BMatC= 2.38D-03 BMatP= 5.10D-04
 IDIUse=3 WtCom= 9.77D-01 WtEn= 2.31D-02
 Coeff-Com:  0.136D+00 0.302D+00-0.240D+00-0.177D+00 0.559D+00-0.180D+01
 Coeff-Com:  0.772D+00 0.280D+01-0.223D+01 0.823D+00-0.219D+01-0.127D+01
 Coeff-Com:  0.371D+01-0.213D+01 0.193D+01
 Coeff-En:   0.000D+00 0.000D+00 0.000D+00 0.000D+00 0.000D+00 0.000D+00
 Coeff-En:   0.000D+00 0.000D+00 0.000D+00 0.000D+00 0.000D+00 0.000D+00
 Coeff-En:   0.000D+00 0.000D+00 0.100D+01
 Coeff:      0.133D+00 0.295D+00-0.234D+00-0.173D+00 0.546D+00-0.176D+01
 Coeff:      0.754D+00 0.273D+01-0.217D+01 0.804D+00-0.214D+01-0.124D+01
 Coeff:      0.362D+01-0.208D+01 0.191D+01
 Gap=     0.111 Goal=   None    Shift=    0.000
 Gap=     0.052 Goal=   None    Shift=    0.000
 RMSDP=3.00D-04 MaxDP=5.21D-03 DE=-2.64D-03 OVMax= 3.90D-02

 Cycle  51  Pass 1  IDiag  1:
 E= -1887.60704902253     Delta-E=        0.000984826723 Rises=F Damp=F
 DIIS: error= 3.98D-03 at cycle  51 NSaved=  16.
 NSaved=16 IEnMin= 4 EnMin= -1887.61794377808     IErMin= 7 ErrMin= 2.34D-03
 ErrMax= 3.98D-03  0.00D+00 EMaxC= 1.00D-01 BMatC= 2.98D-03 BMatP= 5.10D-04
 IDIUse=3 WtCom= 9.77D-01 WtEn= 2.31D-02
 Large coefficients: NSaved= 16 BigCof=   11.24 CofMax=   10.00 Det=-3.51D-08
 Inversion failed.  Reducing to 15 matrices.
 Large coefficients: NSaved= 15 BigCof=   13.72 CofMax=   10.00 Det=-4.07D-08
 Inversion failed.  Reducing to 14 matrices.
 Rare condition: small coef for last iteration:  0.000D+00
 Coeff-Com: -0.416D-01-0.207D+00-0.230D+00-0.255D+00 0.109D+01-0.199D+01
 Coeff-Com:  0.973D+00 0.317D+01-0.254D+01 0.108D+01 0.354D+00-0.253D+01
 Coeff-Com:  0.327D+01-0.113D+01
 Coeff-En:   0.000D+00 0.000D+00 0.000D+00 0.000D+00 0.000D+00 0.000D+00
 Coeff-En:   0.000D+00 0.000D+00 0.000D+00 0.000D+00 0.000D+00 0.000D+00
 Coeff-En:   0.000D+00 0.100D+01
 Coeff:     -0.416D-01-0.207D+00-0.230D+00-0.255D+00 0.109D+01-0.199D+01
 Coeff:      0.973D+00 0.317D+01-0.254D+01 0.108D+01 0.354D+00-0.253D+01
 Coeff:      0.327D+01-0.113D+01
 Gap=     0.112 Goal=   None    Shift=    0.000
 Gap=     0.045 Goal=   None    Shift=    0.000
 RMSDP=2.51D-04 MaxDP=5.80D-03 DE= 9.85D-04 OVMax= 1.85D-02

 Cycle  52  Pass 1  IDiag  1:
 E= -1887.60713114975     Delta-E=       -0.000082127212 Rises=F Damp=F
 DIIS: error= 4.12D-03 at cycle  52 NSaved=  15.
 NSaved=15 IEnMin= 4 EnMin= -1887.61794377808     IErMin= 7 ErrMin= 2.34D-03
 ErrMax= 4.12D-03  0.00D+00 EMaxC= 1.00D-01 BMatC= 3.26D-03 BMatP= 5.10D-04
 IDIUse=3 WtCom= 9.77D-01 WtEn= 2.31D-02
 Coeff-Com: -0.272D+00-0.238D-02-0.566D+00-0.614D-01 0.113D+01-0.213D+01
 Coeff-Com:  0.105D+01 0.275D+01-0.210D+01 0.361D+01-0.314D+00 0.125D+01
 Coeff-Com: -0.143D+01 0.158D+01-0.348D+01
 Coeff-En:   0.000D+00 0.000D+00 0.000D+00 0.000D+00 0.000D+00 0.000D+00
 Coeff-En:   0.000D+00 0.000D+00 0.000D+00 0.000D+00 0.000D+00 0.000D+00
 Coeff-En:   0.000D+00 0.000D+00 0.100D+01
 Coeff:     -0.266D+00-0.233D-02-0.553D+00-0.600D-01 0.110D+01-0.208D+01
 Coeff:      0.103D+01 0.268D+01-0.206D+01 0.352D+01-0.307D+00 0.122D+01
 Coeff:     -0.140D+01 0.154D+01-0.338D+01
 Gap=     0.112 Goal=   None    Shift=    0.000
 Gap=     0.049 Goal=   None    Shift=    0.000
 RMSDP=1.06D-04 MaxDP=2.58D-03 DE=-8.21D-05 OVMax= 1.18D-02

 Cycle  53  Pass 1  IDiag  1:
 E= -1887.60690207431     Delta-E=        0.000229075434 Rises=F Damp=F
 DIIS: error= 4.16D-03 at cycle  53 NSaved=  16.
 NSaved=16 IEnMin= 4 EnMin= -1887.61794377808     IErMin= 7 ErrMin= 2.34D-03
 ErrMax= 4.16D-03  0.00D+00 EMaxC= 1.00D-01 BMatC= 3.26D-03 BMatP= 5.10D-04
 IDIUse=3 WtCom= 9.77D-01 WtEn= 2.31D-02
 Rare condition: small coef for last iteration:  0.000D+00
 Coeff-Com: -0.342D+00 0.130D+00-0.531D+00-0.372D-01 0.836D+00-0.199D+01
 Coeff-Com:  0.806D+00 0.318D+01-0.237D+01 0.498D+01-0.148D+01 0.621D+01
 Coeff-Com: -0.457D+01 0.330D+01-0.519D+01-0.193D+01
 Coeff-En:   0.000D+00 0.000D+00 0.000D+00 0.000D+00 0.000D+00 0.000D+00
 Coeff-En:   0.000D+00 0.000D+00 0.000D+00 0.000D+00 0.000D+00 0.000D+00
 Coeff-En:   0.000D+00 0.000D+00 0.000D+00 0.100D+01
 Coeff:     -0.342D+00 0.130D+00-0.531D+00-0.372D-01 0.836D+00-0.199D+01
 Coeff:      0.806D+00 0.318D+01-0.237D+01 0.498D+01-0.148D+01 0.621D+01
 Coeff:     -0.457D+01 0.330D+01-0.519D+01-0.193D+01
 Gap=     0.111 Goal=   None    Shift=    0.000
 Gap=     0.045 Goal=   None    Shift=    0.000
 RMSDP=1.72D-04 MaxDP=2.61D-03 DE= 2.29D-04 OVMax= 1.53D-02

 Cycle  54  Pass 1  IDiag  1:
 E= -1887.60631579263     Delta-E=        0.000586281687 Rises=F Damp=F
 DIIS: error= 4.64D-03 at cycle  54 NSaved=  17.
 NSaved=17 IEnMin= 4 EnMin= -1887.61794377808     IErMin= 7 ErrMin= 2.34D-03
 ErrMax= 4.64D-03  0.00D+00 EMaxC= 1.00D-01 BMatC= 3.98D-03 BMatP= 5.10D-04
 IDIUse=3 WtCom= 9.77D-01 WtEn= 2.31D-02
 Rare condition: small coef for last iteration:  0.000D+00
 Coeff-Com: -0.323D+00 0.171D+00-0.522D+00-0.607D-01 0.820D+00-0.200D+01
 Coeff-Com:  0.820D+00 0.321D+01-0.241D+01 0.485D+01-0.152D+01 0.617D+01
 Coeff-Com: -0.467D+01 0.328D+01-0.487D+01-0.156D+01-0.387D+00
 Coeff-En:   0.000D+00 0.000D+00 0.000D+00 0.000D+00 0.000D+00 0.000D+00
 Coeff-En:   0.000D+00 0.000D+00 0.000D+00 0.000D+00 0.000D+00 0.000D+00
 Coeff-En:   0.000D+00 0.000D+00 0.000D+00 0.000D+00 0.100D+01
 Coeff:     -0.323D+00 0.171D+00-0.522D+00-0.607D-01 0.820D+00-0.200D+01
 Coeff:      0.820D+00 0.321D+01-0.241D+01 0.485D+01-0.152D+01 0.617D+01
 Coeff:     -0.467D+01 0.328D+01-0.487D+01-0.156D+01-0.387D+00
 Gap=     0.111 Goal=   None    Shift=    0.000
 Gap=     0.044 Goal=   None    Shift=    0.000
 RMSDP=2.54D-05 MaxDP=4.52D-04 DE= 5.86D-04 OVMax= 3.19D-03

 Cycle  55  Pass 1  IDiag  1:
 E= -1887.60621187153     Delta-E=        0.000103921092 Rises=F Damp=F
 DIIS: error= 4.69D-03 at cycle  55 NSaved=  18.
 NSaved=18 IEnMin= 4 EnMin= -1887.61794377808     IErMin= 7 ErrMin= 2.34D-03
 ErrMax= 4.69D-03  0.00D+00 EMaxC= 1.00D-01 BMatC= 4.07D-03 BMatP= 5.10D-04
 IDIUse=3 WtCom= 9.77D-01 WtEn= 2.31D-02
 Rare condition: small coef for last iteration:  0.000D+00
 Coeff-Com: -0.323D+00 0.170D+00-0.522D+00-0.607D-01 0.821D+00-0.200D+01
 Coeff-Com:  0.820D+00 0.321D+01-0.241D+01 0.485D+01-0.152D+01 0.616D+01
 Coeff-Com: -0.467D+01 0.328D+01-0.486D+01-0.156D+01-0.363D+00-0.258D-01
 Coeff-En:   0.000D+00 0.000D+00 0.000D+00 0.000D+00 0.000D+00 0.000D+00
 Coeff-En:   0.000D+00 0.000D+00 0.000D+00 0.000D+00 0.000D+00 0.000D+00
 Coeff-En:   0.000D+00 0.000D+00 0.000D+00 0.000D+00 0.000D+00 0.100D+01
 Coeff:     -0.323D+00 0.170D+00-0.522D+00-0.607D-01 0.821D+00-0.200D+01
 Coeff:      0.820D+00 0.321D+01-0.241D+01 0.485D+01-0.152D+01 0.616D+01
 Coeff:     -0.467D+01 0.328D+01-0.486D+01-0.156D+01-0.363D+00-0.258D-01
 Gap=     0.111 Goal=   None    Shift=    0.000
 Gap=     0.044 Goal=   None    Shift=    0.000
 RMSDP=4.27D-07 MaxDP=7.57D-06 DE= 1.04D-04 OVMax= 3.76D-05

 Cycle  56  Pass 1  IDiag  1:
 E= -1887.60621321115     Delta-E=       -0.000001339620 Rises=F Damp=F
 DIIS: error= 4.69D-03 at cycle  56 NSaved=  19.
 NSaved=19 IEnMin= 4 EnMin= -1887.61794377808     IErMin= 7 ErrMin= 2.34D-03
 ErrMax= 4.69D-03  0.00D+00 EMaxC= 1.00D-01 BMatC= 4.07D-03 BMatP= 5.10D-04
 IDIUse=3 WtCom= 9.77D-01 WtEn= 2.31D-02
 Large coefficients: NSaved= 19 BigCof= 1290.32 CofMax=   10.00 Det=-4.92D-13
 Inversion failed.  Reducing to 18 matrices.
 Large coefficients: NSaved= 18 BigCof=  658.27 CofMax=   10.00 Det=-9.12D-13
 Inversion failed.  Reducing to 17 matrices.
 Large coefficients: NSaved= 17 BigCof=  743.39 CofMax=   10.00 Det=-9.43D-13
 Inversion failed.  Reducing to 16 matrices.
 Large coefficients: NSaved= 16 BigCof= 1128.80 CofMax=   10.00 Det=-1.21D-12
 Inversion failed.  Reducing to 15 matrices.
 Large coefficients: NSaved= 15 BigCof=  945.62 CofMax=   10.00 Det=-3.48D-12
 Inversion failed.  Reducing to 14 matrices.
 Large coefficients: NSaved= 14 BigCof=  543.79 CofMax=   10.00 Det=-7.04D-12
 Inversion failed.  Reducing to 13 matrices.
 Large coefficients: NSaved= 13 BigCof=  536.89 CofMax=   10.00 Det=-1.30D-11
 Inversion failed.  Reducing to 12 matrices.
 Large coefficients: NSaved= 12 BigCof=  463.88 CofMax=   10.00 Det=-1.43D-11
 Inversion failed.  Reducing to 11 matrices.
 Large coefficients: NSaved= 11 BigCof=  505.73 CofMax=   10.00 Det=-1.43D-11
 Inversion failed.  Reducing to 10 matrices.
 Large coefficients: NSaved= 10 BigCof=  362.08 CofMax=   10.00 Det=-1.44D-11
 Inversion failed.  Reducing to  9 matrices.
 Large coefficients: NSaved=  9 BigCof= 1060.23 CofMax=   10.00 Det=-1.92D-11
 Inversion failed.  Reducing to  8 matrices.
 Large coefficients: NSaved=  8 BigCof= 1072.29 CofMax=   10.00 Det=-1.94D-11
 Inversion failed.  Reducing to  7 matrices.
 Large coefficients: NSaved=  7 BigCof= 1504.77 CofMax=   10.00 Det=-2.05D-11
 Inversion failed.  Reducing to  6 matrices.
 Large coefficients: NSaved=  6 BigCof= 1296.29 CofMax=   10.00 Det=-2.29D-11
 Inversion failed.  Reducing to  5 matrices.
 Large coefficients: NSaved=  5 BigCof=  868.87 CofMax=   10.00 Det=-2.38D-11
 Inversion failed.  Reducing to  4 matrices.
 Large coefficients: NSaved=  4 BigCof= 1818.40 CofMax=   10.00 Det=-3.67D-11
 Inversion failed.  Reducing to  3 matrices.
 Large coefficients: NSaved=  3 BigCof= 1878.64 CofMax=   10.00 Det=-3.67D-11
 Inversion failed.  Reducing to  2 matrices.
 Large coefficients: NSaved=  2 BigCof= 4824.07 CofMax=   10.00 Det=-1.27D-10
 Coeff-Com: -0.482D+04 0.482D+04
 Coeff-En:   0.000D+00 0.100D+01
 Coeff:     -0.471D+04 0.471D+04
 Gap=     0.121 Goal=   None    Shift=    0.000
 Gap=     0.054 Goal=   None    Shift=    0.000
 RMSDP=2.16D-03 MaxDP=3.35D-02 DE=-1.34D-06 OVMax= 2.22D-01

 Cycle  57  Pass 1  IDiag  1:
 E= -1887.61150829485     Delta-E=       -0.005295083693 Rises=F Damp=F
 DIIS: error= 3.49D-03 at cycle  57 NSaved=   3.
 NSaved= 3 IEnMin= 3 EnMin= -1887.61150829485     IErMin= 3 ErrMin= 3.49D-03
 ErrMax= 3.49D-03  0.00D+00 EMaxC= 1.00D-01 BMatC= 6.37D-04 BMatP= 4.07D-03
 IDIUse=3 WtCom= 9.77D-01 WtEn= 2.31D-02
 Large coefficients: NSaved=  3 BigCof= 1352.80 CofMax=   10.00 Det=-3.80D-11
 Inversion failed.  Reducing to  2 matrices.
 Coeff-Com:  0.149D+00 0.851D+00
 Coeff-En:   0.000D+00 0.100D+01
 Coeff:      0.146D+00 0.854D+00
 Gap=     0.120 Goal=   None    Shift=    0.000
 Gap=     0.077 Goal=   None    Shift=    0.000
 RMSDP=4.80D-04 MaxDP=1.06D-02 DE=-5.30D-03 OVMax= 3.47D-02

 Cycle  58  Pass 1  IDiag  1:
 E= -1887.61233688994     Delta-E=       -0.000828595091 Rises=F Damp=F
 DIIS: error= 2.44D-03 at cycle  58 NSaved=   3.
 NSaved= 3 IEnMin= 3 EnMin= -1887.61233688994     IErMin= 3 ErrMin= 2.44D-03
 ErrMax= 2.44D-03  0.00D+00 EMaxC= 1.00D-01 BMatC= 6.39D-04 BMatP= 6.37D-04
 IDIUse=3 WtCom= 9.77D-01 WtEn= 2.31D-02
 Coeff-Com: -0.114D+00 0.411D+00 0.703D+00
 Coeff-En:   0.000D+00 0.000D+00 0.100D+01
 Coeff:     -0.111D+00 0.401D+00 0.710D+00
 Gap=     0.122 Goal=   None    Shift=    0.000
 Gap=     0.059 Goal=   None    Shift=    0.000
 RMSDP=5.88D-04 MaxDP=1.17D-02 DE=-8.29D-04 OVMax= 8.04D-02

 Cycle  59  Pass 1  IDiag  1:
 E= -1887.61424534588     Delta-E=       -0.001908455939 Rises=F Damp=F
 DIIS: error= 2.79D-03 at cycle  59 NSaved=   4.
 NSaved= 4 IEnMin= 4 EnMin= -1887.61424534588     IErMin= 3 ErrMin= 2.44D-03
 ErrMax= 2.79D-03  0.00D+00 EMaxC= 1.00D-01 BMatC= 7.20D-04 BMatP= 6.37D-04
 IDIUse=3 WtCom= 9.77D-01 WtEn= 2.31D-02
 Coeff-Com: -0.806D-01 0.461D+00 0.128D+01-0.659D+00
 Coeff-En:   0.000D+00 0.000D+00 0.000D+00 0.100D+01
 Coeff:     -0.787D-01 0.450D+00 0.125D+01-0.620D+00
 Gap=     0.120 Goal=   None    Shift=    0.000
 Gap=     0.062 Goal=   None    Shift=    0.000
 RMSDP=5.87D-04 MaxDP=1.02D-02 DE=-1.91D-03 OVMax= 6.70D-02

 Cycle  60  Pass 1  IDiag  1:
 E= -1887.61256895628     Delta-E=        0.001676389597 Rises=F Damp=F
 DIIS: error= 2.55D-03 at cycle  60 NSaved=   5.
 NSaved= 5 IEnMin= 4 EnMin= -1887.61424534588     IErMin= 3 ErrMin= 2.44D-03
 ErrMax= 2.55D-03  0.00D+00 EMaxC= 1.00D-01 BMatC= 5.18D-04 BMatP= 6.37D-04
 IDIUse=3 WtCom= 9.77D-01 WtEn= 2.31D-02
 Rare condition: small coef for last iteration:  0.000D+00
 Coeff-Com: -0.126D+00 0.232D+00 0.342D+00-0.113D+01 0.168D+01
 Coeff-En:   0.000D+00 0.000D+00 0.000D+00 0.000D+00 0.100D+01
 Coeff:     -0.126D+00 0.232D+00 0.342D+00-0.113D+01 0.168D+01
 Gap=     0.120 Goal=   None    Shift=    0.000
 Gap=     0.068 Goal=   None    Shift=    0.000
 RMSDP=4.84D-04 MaxDP=1.06D-02 DE= 1.68D-03 OVMax= 7.37D-02

 Cycle  61  Pass 1  IDiag  1:
 E= -1887.61271331608     Delta-E=       -0.000144359801 Rises=F Damp=F
 DIIS: error= 2.48D-03 at cycle  61 NSaved=   6.
 NSaved= 6 IEnMin= 4 EnMin= -1887.61424534588     IErMin= 3 ErrMin= 2.44D-03
 ErrMax= 2.48D-03  0.00D+00 EMaxC= 1.00D-01 BMatC= 6.09D-04 BMatP= 5.18D-04
 IDIUse=3 WtCom= 9.77D-01 WtEn= 2.31D-02
 Coeff-Com: -0.387D-01 0.185D+00 0.101D+01-0.252D+01 0.351D+01-0.115D+01
 Coeff-En:   0.000D+00 0.000D+00 0.000D+00 0.000D+00 0.000D+00 0.100D+01
 Coeff:     -0.378D-01 0.181D+00 0.990D+00-0.246D+01 0.343D+01-0.110D+01
 Gap=     0.117 Goal=   None    Shift=    0.000
 Gap=     0.083 Goal=   None    Shift=    0.000
 RMSDP=7.97D-04 MaxDP=1.38D-02 DE=-1.44D-04 OVMax= 1.10D-01

 Cycle  62  Pass 1  IDiag  1:
 E= -1887.61038736283     Delta-E=        0.002325953252 Rises=F Damp=F
 DIIS: error= 2.21D-03 at cycle  62 NSaved=   7.
 NSaved= 7 IEnMin= 4 EnMin= -1887.61424534588     IErMin= 7 ErrMin= 2.21D-03
 ErrMax= 2.21D-03  0.00D+00 EMaxC= 1.00D-01 BMatC= 6.69D-04 BMatP= 5.18D-04
 IDIUse=3 WtCom= 9.77D-01 WtEn= 2.31D-02
 Rare condition: small coef for last iteration:  0.000D+00
 Coeff-Com: -0.737D-01 0.233D+00 0.101D+01-0.282D+01 0.353D+01-0.191D+01
 Coeff-Com:  0.103D+01
 Coeff-En:   0.000D+00 0.000D+00 0.000D+00 0.000D+00 0.000D+00 0.000D+00
 Coeff-En:   0.100D+01
 Coeff:     -0.737D-01 0.233D+00 0.101D+01-0.282D+01 0.353D+01-0.191D+01
 Coeff:      0.103D+01
 Gap=     0.113 Goal=   None    Shift=    0.000
 Gap=     0.088 Goal=   None    Shift=    0.000
 RMSDP=7.57D-04 MaxDP=1.38D-02 DE= 2.33D-03 OVMax= 1.06D-01

 Cycle  63  Pass 1  IDiag  1:
 E= -1887.60804837501     Delta-E=        0.002338987816 Rises=F Damp=F
 DIIS: error= 3.02D-03 at cycle  63 NSaved=   8.
 NSaved= 8 IEnMin= 4 EnMin= -1887.61424534588     IErMin= 7 ErrMin= 2.21D-03
 ErrMax= 3.02D-03  0.00D+00 EMaxC= 1.00D-01 BMatC= 1.38D-03 BMatP= 5.18D-04
 IDIUse=3 WtCom= 9.77D-01 WtEn= 2.31D-02
 Rare condition: small coef for last iteration:  0.000D+00
 Coeff-Com:  0.503D+00 0.238D+00 0.179D+01-0.362D+01 0.352D+01-0.363D+01
 Coeff-Com:  0.464D+01-0.245D+01
 Coeff-En:   0.000D+00 0.000D+00 0.000D+00 0.000D+00 0.000D+00 0.000D+00
 Coeff-En:   0.000D+00 0.100D+01
 Coeff:      0.503D+00 0.238D+00 0.179D+01-0.362D+01 0.352D+01-0.363D+01
 Coeff:      0.464D+01-0.245D+01
 Gap=     0.109 Goal=   None    Shift=    0.000
 Gap=     0.103 Goal=   None    Shift=    0.000
 RMSDP=5.79D-04 MaxDP=1.57D-02 DE= 2.34D-03 OVMax= 3.42D-02

 Cycle  64  Pass 1  IDiag  1:
 E= -1887.60666364013     Delta-E=        0.001384734884 Rises=F Damp=F
 DIIS: error= 4.50D-03 at cycle  64 NSaved=   9.
 NSaved= 9 IEnMin= 4 EnMin= -1887.61424534588     IErMin= 7 ErrMin= 2.21D-03
 ErrMax= 4.50D-03  0.00D+00 EMaxC= 1.00D-01 BMatC= 3.67D-03 BMatP= 5.18D-04
 IDIUse=3 WtCom= 9.77D-01 WtEn= 2.31D-02
 Rare condition: small coef for last iteration:  0.000D+00
 Coeff-Com:  0.228D+00 0.338D+00 0.195D+01-0.343D+01 0.325D+01-0.387D+01
 Coeff-Com:  0.741D+01-0.663D+01 0.175D+01
 Coeff-En:   0.000D+00 0.000D+00 0.000D+00 0.000D+00 0.000D+00 0.000D+00
 Coeff-En:   0.000D+00 0.000D+00 0.100D+01
 Coeff:      0.228D+00 0.338D+00 0.195D+01-0.343D+01 0.325D+01-0.387D+01
 Coeff:      0.741D+01-0.663D+01 0.175D+01
 Gap=     0.116 Goal=   None    Shift=    0.000
 Gap=     0.098 Goal=   None    Shift=    0.000
 RMSDP=1.34D-03 MaxDP=2.54D-02 DE= 1.38D-03 OVMax= 1.80D-01

 Cycle  65  Pass 1  IDiag  1:
 E= -1887.61083997555     Delta-E=       -0.004176335418 Rises=F Damp=F
 DIIS: error= 2.69D-03 at cycle  65 NSaved=  10.
 NSaved=10 IEnMin= 4 EnMin= -1887.61424534588     IErMin= 7 ErrMin= 2.21D-03
 ErrMax= 2.69D-03  0.00D+00 EMaxC= 1.00D-01 BMatC= 1.49D-03 BMatP= 5.18D-04
 IDIUse=3 WtCom= 9.77D-01 WtEn= 2.31D-02
 Coeff-Com:  0.262D+00 0.223D+00 0.200D+01-0.330D+01 0.308D+01-0.334D+01
 Coeff-Com:  0.560D+01-0.474D+01 0.901D+00 0.325D+00
 Coeff-En:   0.000D+00 0.000D+00 0.000D+00 0.000D+00 0.000D+00 0.000D+00
 Coeff-En:   0.000D+00 0.000D+00 0.000D+00 0.100D+01
 Coeff:      0.256D+00 0.218D+00 0.195D+01-0.323D+01 0.301D+01-0.327D+01
 Coeff:      0.547D+01-0.463D+01 0.880D+00 0.341D+00
 Gap=     0.116 Goal=   None    Shift=    0.000
 Gap=     0.091 Goal=   None    Shift=    0.000
 RMSDP=1.47D-04 MaxDP=3.90D-03 DE=-4.18D-03 OVMax= 9.83D-03

 Cycle  66  Pass 1  IDiag  1:
 E= -1887.61073659906     Delta-E=        0.000103376486 Rises=F Damp=F
 DIIS: error= 2.62D-03 at cycle  66 NSaved=  11.
 NSaved=11 IEnMin= 4 EnMin= -1887.61424534588     IErMin= 7 ErrMin= 2.21D-03
 ErrMax= 2.62D-03  0.00D+00 EMaxC= 1.00D-01 BMatC= 1.43D-03 BMatP= 5.18D-04
 IDIUse=3 WtCom= 9.77D-01 WtEn= 2.31D-02
 Rare condition: small coef for last iteration:  0.000D+00
 Coeff-Com:  0.256D+00 0.220D+00 0.198D+01-0.328D+01 0.306D+01-0.330D+01
 Coeff-Com:  0.544D+01-0.460D+01 0.832D+00 0.390D-01 0.360D+00
 Coeff-En:   0.000D+00 0.000D+00 0.000D+00 0.000D+00 0.000D+00 0.000D+00
 Coeff-En:   0.000D+00 0.000D+00 0.000D+00 0.000D+00 0.100D+01
 Coeff:      0.256D+00 0.220D+00 0.198D+01-0.328D+01 0.306D+01-0.330D+01
 Coeff:      0.544D+01-0.460D+01 0.832D+00 0.390D-01 0.360D+00
 Gap=     0.115 Goal=   None    Shift=    0.000
 Gap=     0.091 Goal=   None    Shift=    0.000
 RMSDP=2.17D-05 MaxDP=4.30D-04 DE= 1.03D-04 OVMax= 2.13D-03

 Cycle  67  Pass 1  IDiag  1:
 E= -1887.61066033453     Delta-E=        0.000076264530 Rises=F Damp=F
 DIIS: error= 2.75D-03 at cycle  67 NSaved=  12.
 NSaved=12 IEnMin= 4 EnMin= -1887.61424534588     IErMin= 7 ErrMin= 2.21D-03
 ErrMax= 2.75D-03  0.00D+00 EMaxC= 1.00D-01 BMatC= 1.54D-03 BMatP= 5.18D-04
 IDIUse=3 WtCom= 9.77D-01 WtEn= 2.31D-02
 Rare condition: small coef for last iteration:  0.000D+00
 Coeff-Com:  0.198D+00 0.718D-01 0.197D+01-0.321D+01 0.293D+01-0.331D+01
 Coeff-Com:  0.583D+01-0.519D+01 0.128D+01-0.551D+00 0.806D+01-0.707D+01
 Coeff-En:   0.000D+00 0.000D+00 0.000D+00 0.000D+00 0.000D+00 0.000D+00
 Coeff-En:   0.000D+00 0.000D+00 0.000D+00 0.000D+00 0.000D+00 0.100D+01
 Coeff:      0.198D+00 0.718D-01 0.197D+01-0.321D+01 0.293D+01-0.331D+01
 Coeff:      0.583D+01-0.519D+01 0.128D+01-0.551D+00 0.806D+01-0.707D+01
 Gap=     0.116 Goal=   None    Shift=    0.000
 Gap=     0.089 Goal=   None    Shift=    0.000
 RMSDP=6.04D-05 MaxDP=1.57D-03 DE= 7.63D-05 OVMax= 7.21D-03

 Cycle  68  Pass 1  IDiag  1:
 E= -1887.61080846790     Delta-E=       -0.000148133371 Rises=F Damp=F
 DIIS: error= 2.67D-03 at cycle  68 NSaved=  13.
 NSaved=13 IEnMin= 4 EnMin= -1887.61424534588     IErMin= 7 ErrMin= 2.21D-03
 ErrMax= 2.67D-03  0.00D+00 EMaxC= 1.00D-01 BMatC= 1.48D-03 BMatP= 5.18D-04
 IDIUse=3 WtCom= 9.77D-01 WtEn= 2.31D-02
 Coeff-Com:  0.175D+00 0.114D+00 0.198D+01-0.321D+01 0.289D+01-0.328D+01
 Coeff-Com:  0.579D+01-0.517D+01 0.131D+01-0.772D+00 0.665D+01-0.744D+01
 Coeff-Com:  0.196D+01
 Coeff-En:   0.000D+00 0.000D+00 0.000D+00 0.000D+00 0.000D+00 0.000D+00
 Coeff-En:   0.000D+00 0.000D+00 0.000D+00 0.000D+00 0.000D+00 0.000D+00
 Coeff-En:   0.100D+01
 Coeff:      0.171D+00 0.111D+00 0.194D+01-0.314D+01 0.282D+01-0.320D+01
 Coeff:      0.566D+01-0.505D+01 0.128D+01-0.754D+00 0.650D+01-0.727D+01
 Coeff:      0.194D+01
 Gap=     0.116 Goal=   None    Shift=    0.000
 Gap=     0.089 Goal=   None    Shift=    0.000
[...]
     ILin= 1 X=0.000D+00 Y=-1.887697628281D+03 DE= 0.00D+00 F= -2.32D-09
     ILin= 2 X=1.000D+00 Y=-1.887697628282D+03 DE=-1.16D-09
 Iteration  15 EE= -1887.69762828187     Delta-E=       -0.000000001162 Grad=4.062D-08 Max rot=    0.0000 deg.
 Rotation gradient small -- convergence achieved.
 Density matrix breaks symmetry, PCut= 1.00D-04
 Density matrix has no symmetry -- integrals replicated.
 Density matrix is not symmetric, so final MOs not symmetrized.
 SCF Done:  E(UM062X) =  -1887.69762828     a.u. after   15 cycles
            Convg  =    0.4062D-07                    88 Fock formations.
              S**2 =  3.5050                  -V/T =  2.0013
 <Sx>= 0.0000 <Sy>= 0.0000 <Sz>= 1.0000 <S**2>= 3.5050 S= 1.4378
 <L.S>=  0.00000000000    
 Annihilation of the first spin contaminant:
 S**2 before annihilation     3.5050,   after     3.5581
 Leave Link  508 at Mon Apr 19 23:53:31 2021, MaxMem=   104857600 cpu:             244.5 elap:              10.5
 (Enter /opt/g16avx/l801.exe)
 DoSCS=F DFT=T ScalE2(SS,OS)=  1.000000  1.000000
 Range of M.O.s used for correlation:     1    90
 NBasis=    90 NAE=    24 NBE=    22 NFC=     0 NFV=     0
 NROrb=     90 NOA=    24 NOB=    22 NVA=    66 NVB=    68

 **** Warning!!: The largest alpha MO coefficient is  0.24144210D+02


 **** Warning!!: The largest beta MO coefficient is  0.23474547D+02

 Leave Link  801 at Mon Apr 19 23:53:31 2021, MaxMem=   104857600 cpu:               1.0 elap:               0.0
 (Enter /opt/g16avx/l914.exe)
 UHF ground state
 Doing stability rather than CIS.
 Keep R1 and R2 ints in memory in symmetry-blocked form, NReq=57732570.
 FoFCou: FMM=F IPFlag=           0 FMFlag=           0 FMFlg1=           0
         NFxFlg=           0 DoJE=F BraDBF=F KetDBF=F FulRan=T
         wScrn=  0.000000 ICntrl=       600 IOpCl=  0 I1Cent=           0 NGrid=           0
         NMat0=    1 NMatS0=   4095 NMatT0=    0 NMatD0=    1 NMtDS0=    0 NMtDT0=    0
 Petite list used in FoFCou.
 MDV=   104857600 DFT=T DoStab=T Mixed=T DoRPA=F DoScal=F NonHer=F
 Making orbital integer symmetry assigments:
 Orbital symmetries:
 Alpha Orbitals:
       Occupied  (?A) (?A) (?A) (?A) (?B) (?B) (?A) (?A) (?B) (?B)
                 (?A) (?A) (?A) (?B) (?B) (?B) (?B) (?A) (?C) (?C)
                 (?D) (?E) (?E) (?D)
       Virtual   (?D) (?C) (?C) (?C) (?C) (?E) (?D) (?E) (?D) (?D)
                 (?E) (?D) (?E) (?C) (?C) (?C) (?C) (?D) (?E) (?E)
                 (?D) (?C) (?C) (?D) (?E) (?E) (?C) (?C) (?D) (?C)
                 (?C) (?E) (?E) (?D) (?C) (?C) (?D) (?C) (?C) (?D)
                 (?D) (?C) (?C) (?E) (?E) (?D) (?C) (?C) (?C) (?C)
                 (?D) (?E) (?E) (?E) (?E) (?C) (?C) (?C) (?C) (?E)
                 (?E) (?D) (?D) (?C) (?C) (SGU)
 Beta  Orbitals:
       Occupied  (?A) (?A) (?A) (?A) (?B) (?B) (?A) (?A) (?B) (?B)
                 (?C) (?C) (?C) (?B) (?B) (?C) (?B) (?B) (?D) (?D)
                 (?E) (?F)
       Virtual   (?F) (?F) (?E) (?D) (?D) (?D) (?D) (?F) (?E) (?F)
                 (?E) (?F) (?F) (?D) (?D) (?E) (?E) (?D) (?D) (?E)
                 (?E) (?F) (?F) (?D) (?D) (?F) (?E) (?E) (?F) (?D)
                 (?D) (?D) (?D) (?E) (?E) (?F) (?D) (?D) (?F) (?D)
                 (?D) (?F) (?F) (?D) (?D) (?E) (?E) (?F) (?D) (?D)
                 (?D) (?D) (?E) (?E) (?E) (?D) (?D) (?F) (?E) (?D)
                 (?D) (?E) (?E) (?F) (?F) (?D) (?D) (?F)
    24 initial guesses have been made.
 Convergence on wavefunction:    0.001000000000000
 Davidson Disk Diagonalization:  ConvIn= 1.00D-03 SkipCon=T Conv= 1.00D-03.
 Max sub-space:  2000 roots to seek:    24 dimension of matrix:         3080
 Iteration     1 Dimension    24 NMult     0 NNew     24
 CISAX will form    24 AO SS matrices at one time.
 NMat=    24 NSing=    24 JSym2X= 2.
 New state      1 was old state      3
 Excitation Energies [eV] at current iteration:
 Root      1 :     1.540407710351300
 Root      2 :     1.782040613383018
 Root      3 :     1.919971988847945
 Root      4 :     1.919971988977742
 Root      5 :     1.979677855534503
 Root      6 :     2.111069659150196
 Root      7 :     2.241521385983553
 Root      8 :     2.389844757471655
 Root      9 :     2.389844758626338
 Root     10 :     2.721910206792954
 Root     11 :     2.956737183407088
 Root     12 :     3.140771203226175
 Root     13 :     3.140771203375640
 Root     14 :     3.261805171798276
 Root     15 :     3.501044420303232
 Root     16 :     3.501044420646735
 Root     17 :     4.063177890311669
 Root     18 :     4.278418140969712
 Root     19 :     4.278418141215905
 Root     20 :     6.025742397255020
 Root     21 :     6.025742397348534
 Root     22 :     6.037563425526551
 Root     23 :     8.250869554967380
 Root     24 :     8.250869555105286
 Iteration     2 Dimension    48 NMult    24 NNew     24
 CISAX will form    24 AO SS matrices at one time.
 NMat=    24 NSing=    24 JSym2X= 2.
 New state      1 was old state      2
 Root      1 not converged, maximum delta is    0.403214132962715
 Excitation Energies [eV] at current iteration:
 Root      1 :     0.362138986085671   Change is   -1.419901627297347
 Root      2 :     0.636956612659808   Change is   -1.283015376188136
 Root      3 :     0.636956612678340   Change is   -1.283015376299402
 Root      4 :     1.255622553158465   Change is   -0.284785157192835
 Root      5 :     1.601500736037713   Change is   -0.378177119496790
 Root      6 :     1.607570603610648   Change is   -1.114339603182306
 Root      7 :     1.670490598226319   Change is   -0.719354159245336
 Root      8 :     1.670490599668663   Change is   -0.719354158957676
 Root      9 :     1.834281838941734   Change is   -0.276787820208462
 Root     10 :     1.862217679095301   Change is   -0.379303706888253
 Root     11 :     2.611205694939646   Change is   -0.345531488467442
 Root     12 :     2.754984453567210   Change is   -0.385786749658966
 Root     13 :     2.754984453640821   Change is   -0.385786749734819
 Root     14 :     2.902732025777352   Change is   -0.359073146020924
 Root     15 :     3.299615271480512   Change is   -0.201429148822720
 Root     16 :     3.299615271751200   Change is   -0.201429148895534
 Root     17 :     3.436012457604891   Change is   -0.627165432706779
 Root     18 :     3.617259875875749   Change is   -0.661158265093962
 Root     19 :     3.617259875964327   Change is   -0.661158265251578
 Root     20 :     4.042405929964696   Change is   -1.995157495561855
 Root     21 :     4.661802860386953   Change is   -1.363939536961581
 Root     22 :     4.661802860715192   Change is   -1.363939536539827
 Root     23 :     4.938820405522418   Change is   -3.312049149444963
 Root     24 :     4.938820405652916   Change is   -3.312049149452371
 Iteration     3 Dimension    51 NMult    48 NNew      3
 CISAX will form     3 AO SS matrices at one time.
 NMat=     3 NSing=     3 JSym2X= 2.
 Root      1 not converged, maximum delta is    0.045598296222166
 Excitation Energies [eV] at current iteration:
 Root      1 :     0.280184002720920   Change is   -0.081954983364751
 Root      2 :     0.553925418309358   Change is   -0.083031194368982
 Root      3 :     0.553925418360233   Change is   -0.083031194299576
 Iteration     4 Dimension    54 NMult    51 NNew      3
 CISAX will form     3 AO SS matrices at one time.
 NMat=     3 NSing=     3 JSym2X= 2.
 Root      1 not converged, maximum delta is    0.018045008589331
 Excitation Energies [eV] at current iteration:
 Root      1 :     0.269760359156738   Change is   -0.010423643564182
 Root      2 :     0.542046453666535   Change is   -0.011878964642822
 Root      3 :     0.542046453750104   Change is   -0.011878964610128
 Iteration     5 Dimension    57 NMult    54 NNew      3
 CISAX will form     3 AO SS matrices at one time.
 NMat=     3 NSing=     3 JSym2X= 2.
 Root      1 not converged, maximum delta is    0.008266921122997
 Excitation Energies [eV] at current iteration:
 Root      1 :     0.267494122168274   Change is   -0.002266236988464
 Root      2 :     0.535200089001025   Change is   -0.006846364665511
 Root      3 :     0.535200089111880   Change is   -0.006846364638225
 Iteration     6 Dimension    60 NMult    57 NNew      3
 CISAX will form     3 AO SS matrices at one time.
 NMat=     3 NSing=     3 JSym2X= 2.
 Root      1 not converged, maximum delta is    0.003091445366662
 Excitation Energies [eV] at current iteration:
 Root      1 :     0.267220523950676   Change is   -0.000273598217599
 Root      2 :     0.530926074918791   Change is   -0.004274014082234
 Root      3 :     0.530926075055089   Change is   -0.004274014056790
 Iteration     7 Dimension    63 NMult    60 NNew      3
 CISAX will form     3 AO SS matrices at one time.
 NMat=     3 NSing=     3 JSym2X= 2.
 Root      1 has converged.
 Excitation Energies [eV] at current iteration:
 Root      1 :     0.267203462655519   Change is   -0.000017061295156
 Root      2 :     0.527543154979613   Change is   -0.003382919939177
 Root      3 :     0.527543155143633   Change is   -0.003382919911456
 Convergence achieved on expansion vectors.
 ***********************************************************************
 Stability analysis using <AA,BB:AA,BB> singles matrix:
 ***********************************************************************
 1PDM for each excited state written to RWF  633
 Ground to excited state transition densities written to RWF  633

 Eigenvectors of the stability matrix:
 
 Excited state symmetry could not be determined.
 Eigenvector   1:  3.603-?Sym  Eigenvalue= 0.0098195  <S**2>=2.995
     21A -> 32A       -0.13708
     21B -> 23B        0.19551
     21B -> 24B        0.82575
     21B -> 30B        0.40227
     21B -> 32B        0.10377
     21B -> 35B       -0.10774
     21B -> 44B       -0.18036
 The wavefunction is stable under the perturbations considered.
 Leave Link  914 at Mon Apr 19 23:53:37 2021, MaxMem=   104857600 cpu:             144.4 elap:               6.0
 (Enter /opt/g16avx/l508.exe)
 The wavefunction is already stable.
 Leave Link  508 at Mon Apr 19 23:53:38 2021, MaxMem=   104857600 cpu:               0.6 elap:               0.0
 (Enter /opt/g16avx/l601.exe)
 Copying SCF densities to generalized density rwf, IOpCl= 1 IROHF=0.
 SCF density gives NOpUse=  1 NOpAll=  8.
 Marking SCF density as not fully symmetric.

 **********************************************************************

            Population analysis using the SCF density.

 **********************************************************************

 Orbital symmetries:
 Alpha Orbitals:
       Occupied  (?A) (?A) (?A) (?A) (?B) (?B) (?A) (?A) (?B) (?B)
                 (?A) (?A) (?A) (?B) (?B) (?B) (?B) (?A) (?C) (?C)
                 (?D) (?E) (?E) (?D)
       Virtual   (?D) (?C) (?C) (?C) (?C) (?E) (?D) (?E) (?D) (?D)
                 (?E) (?D) (?E) (?C) (?C) (?C) (?C) (?D) (?E) (?E)
                 (?D) (?C) (?C) (?D) (?E) (?E) (?C) (?C) (?D) (?C)
                 (?C) (?E) (?E) (?D) (?C) (?C) (?D) (?C) (?C) (?D)
                 (?D) (?C) (?C) (?E) (?E) (?D) (?C) (?C) (?C) (?C)
                 (?D) (?E) (?E) (?E) (?E) (?C) (?C) (?C) (?C) (?E)
                 (?E) (?D) (?D) (?C) (?C) (SGU)
 Beta  Orbitals:
       Occupied  (?A) (?A) (?A) (?A) (?B) (?B) (?A) (?A) (?B) (?B)
                 (?C) (?C) (?C) (?B) (?B) (?C) (?B) (?B) (?D) (?D)
                 (?E) (?F)
       Virtual   (?F) (?F) (?E) (?D) (?D) (?D) (?D) (?F) (?E) (?F)
                 (?E) (?F) (?F) (?D) (?D) (?E) (?E) (?D) (?D) (?E)
                 (?E) (?F) (?F) (?D) (?D) (?F) (?E) (?E) (?F) (?D)
                 (?D) (?D) (?D) (?E) (?E) (?F) (?D) (?D) (?F) (?D)
                 (?D) (?F) (?F) (?D) (?D) (?E) (?E) (?F) (?D) (?D)
                 (?D) (?D) (?E) (?E) (?E) (?D) (?D) (?F) (?E) (?D)
                 (?D) (?E) (?E) (?F) (?F) (?D) (?D) (?F)
 Unable to determine electronic state:  an orbital has unidentified symmetry.
 Alpha  occ. eigenvalues -- -198.43366-198.38322 -22.66785 -22.64156 -19.16090
 Alpha  occ. eigenvalues --  -19.16090 -19.16025 -19.13394 -19.13072 -19.13072
 Alpha  occ. eigenvalues --   -2.77355  -2.69708  -1.84653  -1.76254  -1.76254
 Alpha  occ. eigenvalues --   -1.68293  -1.68293  -1.63317  -0.27270  -0.27270
 Alpha  occ. eigenvalues --   -0.26150  -0.23091  -0.22833  -0.20015
 Alpha virt. eigenvalues --   -0.05038   0.03532   0.03532   0.04195   0.04195
 Alpha virt. eigenvalues --    0.05385   0.06108   0.06910   0.08380   0.12433
 Alpha virt. eigenvalues --    0.15943   0.16076   0.16383   0.16986   0.16986
 Alpha virt. eigenvalues --    0.19535   0.19535   0.20837   0.20906   0.21023
 Alpha virt. eigenvalues --    0.27949   0.35092   0.35092   0.52409   0.66130
 Alpha virt. eigenvalues --    0.66463   0.72487   0.72487   0.73962   0.74626
 Alpha virt. eigenvalues --    0.74626   0.75090   0.75438   0.97049   1.25861
 Alpha virt. eigenvalues --    1.25861   1.37338   1.55878   1.55878   1.70628
 Alpha virt. eigenvalues --    1.91793   1.97181   1.97181   2.08747   2.09254
 Alpha virt. eigenvalues --    2.14838   2.24794   2.24794   2.32150   2.32150
 Alpha virt. eigenvalues --    2.49188   2.51703   2.52198   2.52255   2.52787
 Alpha virt. eigenvalues --    2.55944   2.55944   2.58735   2.58735   2.60002
 Alpha virt. eigenvalues --    2.61101   2.68239   2.73461   3.19589   3.19589
 Alpha virt. eigenvalues --    4.42916
  Beta  occ. eigenvalues -- -198.43321-198.38294 -22.69301 -22.60152 -19.18537
  Beta  occ. eigenvalues --  -19.18537 -19.17689 -19.10493 -19.09163 -19.09163
  Beta  occ. eigenvalues --   -2.79140  -2.62895  -1.82217  -1.78204  -1.78204
  Beta  occ. eigenvalues --   -1.59405  -1.59206  -1.59206  -0.28234  -0.28234
  Beta  occ. eigenvalues --   -0.27512  -0.19687
  Beta virt. eigenvalues --   -0.05599  -0.02470   0.01081   0.03499   0.03499
  Beta virt. eigenvalues --    0.04810   0.04810   0.07804   0.08833   0.10634
  Beta virt. eigenvalues --    0.10681   0.12544   0.15335   0.17092   0.17092
  Beta virt. eigenvalues --    0.17230   0.17668   0.19447   0.19447   0.21936
  Beta virt. eigenvalues --    0.22447   0.22726   0.29003   0.34976   0.34976
  Beta virt. eigenvalues --    0.52648   0.66461   0.68152   0.71804   0.71894
  Beta virt. eigenvalues --    0.71894   0.73540   0.73540   0.75336   0.75601
  Beta virt. eigenvalues --    0.93513   1.26479   1.26479   1.39584   1.56912
  Beta virt. eigenvalues --    1.56912   1.70406   1.94637   2.01018   2.01018
  Beta virt. eigenvalues --    2.09310   2.10909   2.16958   2.24458   2.24458
  Beta virt. eigenvalues --    2.36659   2.36659   2.48527   2.52669   2.52992
  Beta virt. eigenvalues --    2.53006   2.53006   2.54111   2.54648   2.60885
  Beta virt. eigenvalues --    2.60885   2.64351   2.64791   2.70719   2.75584
  Beta virt. eigenvalues --    3.20664   3.20664   4.43716
          Condensed to atoms (all electrons):
               1          2
     1  V   22.303435   0.636637
     2  V    0.636637  22.423291
          Atomic-Atomic Spin Densities.
               1          2
     1  V    3.665514   0.185915
     2  V    0.185915  -2.037343
 Mulliken charges and spin densities:
               1          2
     1  V    0.059928   3.851429
     2  V   -0.059928  -1.851429
 Sum of Mulliken charges =   0.00000   2.00000
 Mulliken charges and spin densities with hydrogens summed into heavy atoms:
               1          2
     1  V    0.059928   3.851429
     2  V   -0.059928  -1.851429
 Electronic spatial extent (au):  <R**2>=            202.6829
 Charge=              0.0000 electrons
 Dipole moment (field-independent basis, Debye):
    X=             -0.0000    Y=             -0.0000    Z=              0.1075  Tot=              0.1075
 Quadrupole moment (field-independent basis, Debye-Ang):
   XX=            -35.5957   YY=            -35.5957   ZZ=            -28.3725
   XY=              0.0000   XZ=             -0.0000   YZ=             -0.0000
 Traceless Quadrupole moment (field-independent basis, Debye-Ang):
   XX=             -2.4077   YY=             -2.4077   ZZ=              4.8154
   XY=              0.0000   XZ=             -0.0000   YZ=             -0.0000
 Octapole moment (field-independent basis, Debye-Ang**2):
  XXX=             -0.0000  YYY=              0.0000  ZZZ=              3.2844  XYY=             -0.0000
  XXY=              0.0000  XXZ=              1.1266  XZZ=              0.0000  YZZ=             -0.0000
  YYZ=              1.1266  XYZ=             -0.0000
 Hexadecapole moment (field-independent basis, Debye-Ang**3):
 XXXX=            -83.6378 YYYY=            -83.6378 ZZZZ=           -208.6994 XXXY=             -0.0000
 XXXZ=             -0.0000 YYYX=              0.0000 YYYZ=             -0.0000 ZZZX=             -0.0000
 ZZZY=             -0.0000 XXYY=            -27.3366 XXZZ=            -48.7965 YYZZ=            -48.7965
 XXYZ=             -0.0000 YYXZ=             -0.0000 ZZXY=             -0.0000
 N-N= 1.581552229247D+02 E-N=-4.794669644402D+03  KE= 1.885155769224D+03
                          Isotropic Fermi Contact Couplings
        Atom                 a.u.       MegaHertz       Gauss      10(-4) cm-1
     1  V(51)              0.97139     572.05660     204.12402     190.81754
     2  V(51)              0.08127      47.86198      17.07835      15.96504
 --------------------------------------------------------
       Center         ----  Spin Dipole Couplings  ----
                      3XX-RR        3YY-RR        3ZZ-RR
 --------------------------------------------------------
     1   Atom        0.522470      0.522470     -1.044939
     2   Atom       -0.176469     -0.176469      0.352937
 --------------------------------------------------------
                        XY            XZ            YZ
 --------------------------------------------------------
     1   Atom       -0.000000      0.000000     -0.000000
     2   Atom        0.000000     -0.000000     -0.000000
 --------------------------------------------------------


 ---------------------------------------------------------------------------------
              Anisotropic Spin Dipole Couplings in Principal Axis System
 ---------------------------------------------------------------------------------

       Atom             a.u.   MegaHertz   Gauss  10(-4) cm-1        Axes

              Baa    -1.0449  -146.909   -52.421   -49.004 -0.0000  0.0000  1.0000
     1 V(51)  Bbb     0.5225    73.455    26.210    24.502  0.9996  0.0268  0.0000
              Bcc     0.5225    73.455    26.210    24.502 -0.0268  0.9996 -0.0000
 
              Baa    -0.1765   -24.810    -8.853    -8.276 -0.0013  1.0000  0.0000
     2 V(51)  Bbb    -0.1765   -24.810    -8.853    -8.276  1.0000  0.0013  0.0000
              Bcc     0.3529    49.620    17.706    16.551 -0.0000 -0.0000  1.0000
 

 ---------------------------------------------------------------------------------

 No NMR shielding tensors so no spin-rotation constants.
 Leave Link  601 at Mon Apr 19 23:53:38 2021, MaxMem=   104857600 cpu:               4.5 elap:               0.2
 (Enter /opt/g16avx/l9999.exe)

 Test job not archived.
 1\1\GINC-VERTEX\Stability\UM062X\def2TZVP\V2(3)\XRAY\19-Apr-2021\0\\#P
  M062X/Def2TZVP Integral=UltraFineGrid scf=(nosymm,xqc,maxconven=155) 
 Stable=(RExt, Opt) IOp(1/33=1)\\Database calculations.\\0,3\V,0,0.,0.,
 0.\V,0,0.,0.,1.77\\Version=ES64L-G16RevA.03\HF=-1887.6976283\S2=3.5050
 46\S2-1=0.\S2A=3.558089\RMSD=7.319e-10\Dipole=0.,0.,-0.042282\Quadrupo
 le=-1.7900731,-1.7900731,3.5801462,0.,0.,0.\PG=D*H [C*(V1.V1)]\\@


 WHAT THE SLIME CONTAINS, THE GLOWING REVEALS
 BY THE FLAME'S BRIGHT HUE WHEN YOU IGNITE IT.
   --  LEONARD THURNEYSSER, 1531-1596
 DESCRIBING HIS FLAME PHOTOLYSIS ANALYTIC METHOD
 Job cpu time:       0 days  0 hours 11 minutes  0.8 seconds.
 Elapsed time:       0 days  0 hours  0 minutes 28.0 seconds.
 File lengths (MBytes):  RWF=    103 Int=      0 D2E=      0 Chk=      3 Scr=      1
 Normal termination of Gaussian 16 at Mon Apr 19 23:53:38 2021.
