 Entering Gaussian System, Link 0=/s/ls4/users/knvvv/bin/g16sse/g16
 Input=data/database/M062X--def2-QZVP--BH76_C2H6.gjf
 Output=data/database/M062X--def2-QZVP--BH76_C2H6.log
 Initial command:
 /s/ls4/users/knvvv/bin/g16sse/l1.exe "/s/ls4/users/knvvv/bin/scratch/Gau-46481.inp" -scrdir="/s/ls4/users/knvvv/bin/scratch/"
 Entering Link 1 = /s/ls4/users/knvvv/bin/g16sse/l1.exe PID=     46482.
  
 Copyright (c) 1988,1990,1992,1993,1995,1998,2003,2009,2016,
            Gaussian, Inc.  All Rights Reserved.
  
 This is part of the Gaussian(R) 16 program.  It is based on
 the Gaussian(R) 09 system (copyright 2009, Gaussian, Inc.),
 the Gaussian(R) 03 system (copyright 2003, Gaussian, Inc.),
 the Gaussian(R) 98 system (copyright 1998, Gaussian, Inc.),
 the Gaussian(R) 94 system (copyright 1995, Gaussian, Inc.),
 the Gaussian 92(TM) system (copyright 1992, Gaussian, Inc.),
 the Gaussian 90(TM) system (copyright 1990, Gaussian, Inc.),
 the Gaussian 88(TM) system (copyright 1988, Gaussian, Inc.),
 the Gaussian 86(TM) system (copyright 1986, Carnegie Mellon
 University), and the Gaussian 82(TM) system (copyright 1983,
 Carnegie Mellon University). Gaussian is a federally registered
 trademark of Gaussian, Inc.
  
 This software contains proprietary and confidential information,
 including trade secrets, belonging to Gaussian, Inc.
  
 This software is provided under written license and may be
 used, copied, transmitted, or stored only in accord with that
 written license.
  
 The following legend is applicable only to US Government
 contracts under FAR:
  
                    RESTRICTED RIGHTS LEGEND
  
 Use, reproduction and disclosure by the US Government is
 subject to restrictions as set forth in subparagraphs (a)
 and (c) of the Commercial Computer Software - Restricted
 Rights clause in FAR 52.227-19.
  
 Gaussian, Inc.
 340 Quinnipiac St., Bldg. 40, Wallingford CT 06492
  
  
 ---------------------------------------------------------------
 Warning -- This program may not be used in any manner that
 competes with the business of Gaussian, Inc. or will provide
 assistance to any competitor of Gaussian, Inc.  The licensee
 of this program is prohibited from giving any competitor of
 Gaussian, Inc. access to this program.  By using this program,
 the user acknowledges that Gaussian, Inc. is engaged in the
 business of creating and licensing software in the field of
 computational chemistry and represents and warrants to the
 licensee that it is not a competitor of Gaussian, Inc. and that
 it will not use this program in any manner prohibited above.
 ---------------------------------------------------------------
  

 Cite this work as:
 Gaussian 16, Revision A.03,
 M. J. Frisch, G. W. Trucks, H. B. Schlegel, G. E. Scuseria, 
 M. A. Robb, J. R. Cheeseman, G. Scalmani, V. Barone, 
 G. A. Petersson, H. Nakatsuji, X. Li, M. Caricato, A. V. Marenich, 
 J. Bloino, B. G. Janesko, R. Gomperts, B. Mennucci, H. P. Hratchian, 
 J. V. Ortiz, A. F. Izmaylov, J. L. Sonnenberg, D. Williams-Young, 
 F. Ding, F. Lipparini, F. Egidi, J. Goings, B. Peng, A. Petrone, 
 T. Henderson, D. Ranasinghe, V. G. Zakrzewski, J. Gao, N. Rega, 
 G. Zheng, W. Liang, M. Hada, M. Ehara, K. Toyota, R. Fukuda, 
 J. Hasegawa, M. Ishida, T. Nakajima, Y. Honda, O. Kitao, H. Nakai, 
 T. Vreven, K. Throssell, J. A. Montgomery, Jr., J. E. Peralta, 
 F. Ogliaro, M. J. Bearpark, J. J. Heyd, E. N. Brothers, K. N. Kudin, 
 V. N. Staroverov, T. A. Keith, R. Kobayashi, J. Normand, 
 K. Raghavachari, A. P. Rendell, J. C. Burant, S. S. Iyengar, 
 J. Tomasi, M. Cossi, J. M. Millam, M. Klene, C. Adamo, R. Cammi, 
 J. W. Ochterski, R. L. Martin, K. Morokuma, O. Farkas, 
 J. B. Foresman, and D. J. Fox, Gaussian, Inc., Wallingford CT, 2016.
 
 ******************************************
 Gaussian 16:  ES64L-G16RevA.03 25-Dec-2016
                16-Apr-2021 
 ******************************************
 %RWF=temp11_51572,70GB
 %nprocshared=48
 Will use up to   48 processors via shared memory.
 Default route: MaxDisk=80GB
 ----------------------------------------------------------------------
 #P M062X/Def2QZVP Integral=UltraFineGrid SCF=NoSymm Stable=(RExt, Opt)
  IOp(1/33=1)
 ----------------------------------------------------------------------
 1/33=1,38=1,172=1/1;
 2/12=2,17=6,18=5,40=1/2;
 3/5=45,7=101,11=2,25=1,30=1,74=-55,75=-5/1,2,3;
 4/9=2/1;
 5/5=2,38=5/2;
 6/7=2,8=2,9=2,10=2,28=1/1;
 8/6=1,10=90,11=11/1;
 9/8=-3,42=1,46=1/14;
 5/5=2,8=3,17=40,38=5/8(-2);
 6/7=2,8=2,9=2,10=2,28=1/1;
 99/5=1,9=1/99;
 Leave Link    1 at Fri Apr 16 22:56:41 2021, MaxMem=           0 cpu:              11.0 elap:               0.2
 (Enter /s/ls4/users/knvvv/bin/g16sse/l101.exe)
 ONIOM data not found on unit 2.
 ----------------------
 Database calculations.
 ----------------------
 TstMul:  ICh=     0
 TstMul:  Mul=     1
 TstMul:  ICh=     0
 TstMul:  Mul=     1
 Symbolic Z-matrix:
 Charge =  0 Multiplicity = 1
 C                    -0.76309   0.        0. 
 C                     0.76309   0.        0. 
 H                     1.15831  -0.44364  -0.9141 
 H                    -1.15831  -1.01333  -0.07464 
 H                     1.15831  -0.56981   0.84125 
 H                     1.15831   1.01345   0.07285 
 H                    -1.15831   0.44202   0.91488 
 H                    -1.15831   0.57131  -0.84024 
 
 RdStrC is calling ZToCFu for IStruc=1 NZ=     8.
 PrtBox:  NBox=     1 Levels=  1 BoxLen=    8.00 SMaxX=        4.38
          Shift=            2.188890            1.914910            1.727390
 Box      1 Number                   0 centers from      1 to      8:
 After GenITR:
 ITRead=  0  0  0  0  0  0  0  0
 MicOpt= -1 -1 -1 -1 -1 -1 -1 -1
 ITRead=  0  0  0  0  0  0  0  0
 MicOpt= -1 -1 -1 -1 -1 -1 -1 -1
 NAtoms=      8 NQM=        8 NQMF=       0 NMMI=      0 NMMIF=      0
                NMic=       0 NMicF=      0.
                    Isotopes and Nuclear Properties:
 (Nuclear quadrupole moments (NQMom) in fm**2, nuclear magnetic moments (NMagM)
  in nuclear magnetons)

  Atom         1           2           3           4           5           6           7           8
 IAtWgt=          12          12           1           1           1           1           1           1
 AtmWgt=  12.0000000  12.0000000   1.0078250   1.0078250   1.0078250   1.0078250   1.0078250   1.0078250
 NucSpn=           0           0           1           1           1           1           1           1
 AtZEff=  -0.0000000  -0.0000000  -0.0000000  -0.0000000  -0.0000000  -0.0000000  -0.0000000  -0.0000000
 NQMom=    0.0000000   0.0000000   0.0000000   0.0000000   0.0000000   0.0000000   0.0000000   0.0000000
 NMagM=    0.0000000   0.0000000   2.7928460   2.7928460   2.7928460   2.7928460   2.7928460   2.7928460
 AtZNuc=   6.0000000   6.0000000   1.0000000   1.0000000   1.0000000   1.0000000   1.0000000   1.0000000
 No MM parameters found.
 Leave Link  101 at Fri Apr 16 22:56:41 2021, MaxMem=   104857600 cpu:               8.8 elap:               0.2
 (Enter /s/ls4/users/knvvv/bin/g16sse/l202.exe)
                          Input orientation:                          
 ---------------------------------------------------------------------
 Center     Atomic      Atomic             Coordinates (Angstroms)
 Number     Number       Type             X           Y           Z
 ---------------------------------------------------------------------
      1          6           0       -0.763095    0.000000    0.000000
      2          6           0        0.763095    0.000000    0.000000
      3          1           0        1.158311   -0.443642   -0.914095
      4          1           0       -1.158311   -1.013327   -0.074640
      5          1           0        1.158311   -0.569813    0.841254
      6          1           0        1.158311    1.013454    0.072848
      7          1           0       -1.158311    0.442020    0.914884
      8          1           0       -1.158311    0.571305   -0.840244
 ---------------------------------------------------------------------
                    Distance matrix (angstroms):
                    1          2          3          4          5
     1  C    0.000000
     2  C    1.526190   0.000000
     3  H    2.173520   1.090222   0.000000
     4  H    1.090228   2.173523   2.529024   0.000000
     5  H    2.173521   1.090225   1.759878   2.530277   0.000000
     6  H    2.173521   1.090225   1.759882   3.081611   1.759881
     7  H    1.090225   2.173521   3.081607   1.759884   2.529024
     8  H    1.090227   2.173522   2.530278   1.759888   3.081610
                    6          7          8
     6  H    0.000000
     7  H    2.530276   0.000000
     8  H    2.529025   1.759883   0.000000
 This structure is nearly, but not quite of a higher symmetry.
 Consider Symm=Loose if the higher symmetry is desired.
 Stoichiometry    C2H6
 Framework group  C1[X(C2H6)]
 Deg. of freedom    18
 Full point group                 C1      NOp   1
 Largest Abelian subgroup         C1      NOp   1
 Largest concise Abelian subgroup C1      NOp   1
                         Standard orientation:                         
 ---------------------------------------------------------------------
 Center     Atomic      Atomic             Coordinates (Angstroms)
 Number     Number       Type             X           Y           Z
 ---------------------------------------------------------------------
      1          6           0       -0.006005   -0.067295    0.760098
      2          6           0        0.006004    0.067296   -0.760098
      3          1           0       -0.940642   -0.256753   -1.193040
      4          1           0       -0.173174   -1.100867    1.064044
      5          1           0        0.796590   -0.537954   -1.204213
      6          1           0        0.171400    1.101152   -1.064033
      7          1           0        0.941283    0.255074    1.192896
      8          1           0       -0.795452    0.539345    1.204345
 ---------------------------------------------------------------------
 Rotational constants (GHZ):          80.9533001          20.0467382          20.0467244
 Leave Link  202 at Fri Apr 16 22:56:42 2021, MaxMem=   104857600 cpu:               5.9 elap:               0.1
 (Enter /s/ls4/users/knvvv/bin/g16sse/l301.exe)
 Standard basis: def2QZVP (5D, 7F)
 Ernie: Thresh=  0.10000D-02 Tol=  0.10000D-05 Strict=F.
 There are   354 symmetry adapted cartesian basis functions of A   symmetry.
 There are   294 symmetry adapted basis functions of A   symmetry.
   294 basis functions,   412 primitive gaussians,   354 cartesian basis functions
     9 alpha electrons        9 beta electrons
       nuclear repulsion energy        42.2953033074 Hartrees.
 IExCor= 4336 DFT=T Ex+Corr=M062X ExCW=0 ScaHFX=  0.540000
 ScaDFX=  1.000000  1.000000  1.000000  1.000000 ScalE2=  1.000000  1.000000
 IRadAn=      5 IRanWt=     -1 IRanGd=            0 ICorTp=0 IEmpDi=  4
 NAtoms=    8 NActive=    8 NUniq=    8 SFac= 1.00D+00 NAtFMM=   60 NAOKFM=F Big=F
 Integral buffers will be    131072 words long.
 Raffenetti 2 integral format.
 Two-electron integral symmetry is turned on.
 Leave Link  301 at Fri Apr 16 22:56:42 2021, MaxMem=   104857600 cpu:               6.3 elap:               0.2
 (Enter /s/ls4/users/knvvv/bin/g16sse/l302.exe)
 NPDir=0 NMtPBC=     1 NCelOv=     1 NCel=       1 NClECP=     1 NCelD=      1
         NCelK=      1 NCelE2=     1 NClLst=     1 CellRange=     0.0.
 One-electron integrals computed using PRISM.
 One-electron integral symmetry used in STVInt
 PrsmSu:  requested number of processors reduced to:   4 ShMem   1 Linda.
 PrsmSu:  requested number of processors reduced to:  21 ShMem   1 Linda.
   1 Symmetry operations used in ECPInt.
 ECPInt:  NShTT=    4465 NPrTT=    9430 LenC2=    4465 LenP2D=    8736.
 LDataN:  DoStor=T MaxTD1= 8 Len=  415
 Number of processors reduced to  24 by ecpmxn.
 NBasis=   294 RedAO= T EigKep=  1.02D-04  NBF=   294
 NBsUse=   294 1.00D-06 EigRej= -1.00D+00 NBFU=   294
 Precomputing XC quadrature grid using
 IXCGrd= 4 IRadAn=           5 IRanWt=          -1 IRanGd=           0 AccXCQ= 0.00D+00.
 Generated NRdTot=       0 NPtTot=           0 NUsed=           0 NTot=          32
 NSgBfM=   354   354   354   354   354 MxSgAt=     8 MxSgA2=     8.
 Leave Link  302 at Fri Apr 16 22:56:47 2021, MaxMem=   104857600 cpu:             246.3 elap:               5.3
 (Enter /s/ls4/users/knvvv/bin/g16sse/l303.exe)
 DipDrv:  MaxL=1.
 Leave Link  303 at Fri Apr 16 22:56:48 2021, MaxMem=   104857600 cpu:              45.5 elap:               1.0
 (Enter /s/ls4/users/knvvv/bin/g16sse/l401.exe)
 SCF N**3 symmetry information disabled.
 ExpMin= 7.60D-02 ExpMax= 6.70D+04 ExpMxC= 6.47D+02 IAcc=3 IRadAn=         5 AccDes= 0.00D+00
 Harris functional with IExCor= 1009 and IRadAn=       5 diagonalized for initial guess.
 HarFok:  IExCor= 1009 AccDes= 0.00D+00 IRadAn=         5 IDoV= 1 UseB2=F ITyADJ=14
 ICtDFT=  3500011 ScaDFX=  1.000000  1.000000  1.000000  1.000000
 FoFCou: FMM=F IPFlag=           0 FMFlag=      100000 FMFlg1=           0
         NFxFlg=           0 DoJE=T BraDBF=F KetDBF=T FulRan=T
         wScrn=  0.000000 ICntrl=       500 IOpCl=  0 I1Cent=   200000004 NGrid=           0
         NMat0=    1 NMatS0=      1 NMatT0=    0 NMatD0=    1 NMtDS0=    0 NMtDT0=    0
 Petite list used in FoFCou.
 CoulSu:  requested number of processors reduced to:  20 ShMem   1 Linda.
 CoulSu:  requested number of processors reduced to:  20 ShMem   1 Linda.
 CoulSu:  requested number of processors reduced to:  21 ShMem   1 Linda.
 CoulSu:  requested number of processors reduced to:  21 ShMem   1 Linda.
 Harris En= -79.8494036262312    
 JPrj=0 DoOrth=F DoCkMO=F.
 Leave Link  401 at Fri Apr 16 22:56:50 2021, MaxMem=   104857600 cpu:              93.2 elap:               2.2
 (Enter /s/ls4/users/knvvv/bin/g16sse/l502.exe)
 Integral symmetry usage will be decided dynamically.
 Closed shell SCF:
 Using DIIS extrapolation, IDIIS=  1040.
 NGot=   104857600 LenX=   104587044 LenY=   104461287
 Requested convergence on RMS density matrix=1.00D-08 within 128 cycles.
 Requested convergence on MAX density matrix=1.00D-06.
 Requested convergence on             energy=1.00D-06.
 No special actions if energy rises.
 Fock matrices will be formed incrementally for  20 cycles.
 Integral accuracy reduced to 1.0D-05 until final iterations.

 Cycle   1  Pass 0  IDiag  1:
 FoFJK:  IHMeth= 1 ICntrl=       0 DoSepK=F KAlg= 0 I1Cent=           0 FoldK=F
 IRaf= 990000000 NMat=       1 IRICut=       1 DoRegI=T DoRafI=F ISym2E= 0 IDoP0=0 IntGTp=1.
 FoFCou: FMM=F IPFlag=           0 FMFlag=      100000 FMFlg1=           0
         NFxFlg=           0 DoJE=F BraDBF=F KetDBF=F FulRan=T
         wScrn=  0.000000 ICntrl=         0 IOpCl=  0 I1Cent=           0 NGrid=           0
         NMat0=    1 NMatS0=      1 NMatT0=    0 NMatD0=    1 NMtDS0=    0 NMtDT0=    0
 Symmetry not used in FoFCou.
 CoulSu:  requested number of processors reduced to:  21 ShMem   1 Linda.
 E= -79.6754834208917    
 DIIS: error= 3.97D-02 at cycle   1 NSaved=   1.
 NSaved= 1 IEnMin= 1 EnMin= -79.6754834208917     IErMin= 1 ErrMin= 3.97D-02
 ErrMax= 3.97D-02  0.00D+00 EMaxC= 1.00D-01 BMatC= 1.74D-01 BMatP= 1.74D-01
 IDIUse=3 WtCom= 6.03D-01 WtEn= 3.97D-01
 Coeff-Com:  0.100D+01
 Coeff-En:   0.100D+01
 Coeff:      0.100D+01
 Gap=     0.378 Goal=   None    Shift=    0.000
 GapD=    0.378 DampG=1.000 DampE=0.500 DampFc=0.5000 IDamp=-1.
 Damping current iteration by 5.00D-01
 RMSDP=1.14D-03 MaxDP=3.80D-02              OVMax= 1.65D-01

 Cycle   2  Pass 0  IDiag  1:
 RMSU=  5.49D-04    CP:  9.57D-01
 CoulSu:  requested number of processors reduced to:  21 ShMem   1 Linda.
 E= -79.7468759000837     Delta-E=       -0.071392479192 Rises=F Damp=T
 DIIS: error= 1.52D-02 at cycle   2 NSaved=   2.
 NSaved= 2 IEnMin= 2 EnMin= -79.7468759000837     IErMin= 2 ErrMin= 1.52D-02
 ErrMax= 1.52D-02  0.00D+00 EMaxC= 1.00D-01 BMatC= 1.39D-02 BMatP= 1.74D-01
 IDIUse=3 WtCom= 8.48D-01 WtEn= 1.52D-01
 Coeff-Com: -0.124D+00 0.112D+01
 Coeff-En:   0.000D+00 0.100D+01
 Coeff:     -0.105D+00 0.111D+01
 Gap=     0.487 Goal=   None    Shift=    0.000
 RMSDP=5.47D-04 MaxDP=5.44D-02 DE=-7.14D-02 OVMax= 9.05D-02

 Cycle   3  Pass 0  IDiag  1:
 RMSU=  5.31D-04    CP:  9.83D-01  1.17D+00
 CoulSu:  requested number of processors reduced to:  21 ShMem   1 Linda.
 E= -79.8140001986423     Delta-E=       -0.067124298559 Rises=F Damp=F
 DIIS: error= 3.14D-03 at cycle   3 NSaved=   3.
 NSaved= 3 IEnMin= 3 EnMin= -79.8140001986423     IErMin= 3 ErrMin= 3.14D-03
 ErrMax= 3.14D-03  0.00D+00 EMaxC= 1.00D-01 BMatC= 7.19D-04 BMatP= 1.39D-02
 IDIUse=3 WtCom= 9.69D-01 WtEn= 3.14D-02
 Coeff-Com: -0.594D-01 0.165D+00 0.894D+00
 Coeff-En:   0.000D+00 0.000D+00 0.100D+01
 Coeff:     -0.575D-01 0.160D+00 0.897D+00
 Gap=     0.452 Goal=   None    Shift=    0.000
 RMSDP=7.64D-05 MaxDP=5.89D-03 DE=-6.71D-02 OVMax= 7.97D-03

 Cycle   4  Pass 0  IDiag  1:
 RMSU=  6.38D-05    CP:  9.75D-01  1.22D+00  9.71D-01
 CoulSu:  requested number of processors reduced to:  21 ShMem   1 Linda.
 E= -79.8146537466448     Delta-E=       -0.000653548003 Rises=F Damp=F
 DIIS: error= 8.44D-04 at cycle   4 NSaved=   4.
 NSaved= 4 IEnMin= 4 EnMin= -79.8146537466448     IErMin= 4 ErrMin= 8.44D-04
 ErrMax= 8.44D-04  0.00D+00 EMaxC= 1.00D-01 BMatC= 2.13D-05 BMatP= 7.19D-04
 IDIUse=3 WtCom= 9.92D-01 WtEn= 8.44D-03
 Coeff-Com: -0.337D-02 0.808D-02 0.158D+00 0.837D+00
 Coeff-En:   0.000D+00 0.000D+00 0.000D+00 0.100D+01
 Coeff:     -0.334D-02 0.801D-02 0.157D+00 0.839D+00
 Gap=     0.452 Goal=   None    Shift=    0.000
 RMSDP=9.77D-06 MaxDP=6.25D-04 DE=-6.54D-04 OVMax= 1.74D-03

 Initial convergence to 1.0D-05 achieved.  Increase integral accuracy.
 Cycle   5  Pass 1  IDiag  1:
 CoulSu:  requested number of processors reduced to:  21 ShMem   1 Linda.
 E= -79.8146834512786     Delta-E=       -0.000029704634 Rises=F Damp=F
 DIIS: error= 6.05D-05 at cycle   1 NSaved=   1.
 NSaved= 1 IEnMin= 1 EnMin= -79.8146834512786     IErMin= 1 ErrMin= 6.05D-05
 ErrMax= 6.05D-05  0.00D+00 EMaxC= 1.00D-01 BMatC= 7.96D-07 BMatP= 7.96D-07
 IDIUse=1 WtCom= 1.00D+00 WtEn= 0.00D+00
 Coeff-Com:  0.100D+01
 Coeff:      0.100D+01
 Gap=     0.452 Goal=   None    Shift=    0.000
 RMSDP=9.77D-06 MaxDP=6.25D-04 DE=-2.97D-05 OVMax= 3.04D-04

 Cycle   6  Pass 1  IDiag  1:
 RMSU=  5.61D-06    CP:  1.00D+00
 CoulSu:  requested number of processors reduced to:  21 ShMem   1 Linda.
 E= -79.8146838998075     Delta-E=       -0.000000448529 Rises=F Damp=F
 DIIS: error= 3.00D-05 at cycle   2 NSaved=   2.
 NSaved= 2 IEnMin= 2 EnMin= -79.8146838998075     IErMin= 2 ErrMin= 3.00D-05
 ErrMax= 3.00D-05  0.00D+00 EMaxC= 1.00D-01 BMatC= 5.44D-08 BMatP= 7.96D-07
 IDIUse=1 WtCom= 1.00D+00 WtEn= 0.00D+00
 Coeff-Com:  0.105D+00 0.895D+00
 Coeff:      0.105D+00 0.895D+00
 Gap=     0.452 Goal=   None    Shift=    0.000
 RMSDP=8.16D-07 MaxDP=3.40D-05 DE=-4.49D-07 OVMax= 8.60D-05

 Cycle   7  Pass 1  IDiag  1:
 RMSU=  7.04D-07    CP:  1.00D+00  1.07D+00
 CoulSu:  requested number of processors reduced to:  21 ShMem   1 Linda.
 E= -79.8146839399988     Delta-E=       -0.000000040191 Rises=F Damp=F
 DIIS: error= 1.52D-05 at cycle   3 NSaved=   3.
 NSaved= 3 IEnMin= 3 EnMin= -79.8146839399988     IErMin= 3 ErrMin= 1.52D-05
 ErrMax= 1.52D-05  0.00D+00 EMaxC= 1.00D-01 BMatC= 1.86D-08 BMatP= 5.44D-08
 IDIUse=1 WtCom= 1.00D+00 WtEn= 0.00D+00
 Coeff-Com: -0.210D-01 0.342D+00 0.679D+00
 Coeff:     -0.210D-01 0.342D+00 0.679D+00
 Gap=     0.452 Goal=   None    Shift=    0.000
 RMSDP=3.10D-07 MaxDP=1.92D-05 DE=-4.02D-08 OVMax= 4.75D-05

 Cycle   8  Pass 1  IDiag  1:
 RMSU=  1.87D-07    CP:  1.00D+00  1.10D+00  7.82D-01
 CoulSu:  requested number of processors reduced to:  21 ShMem   1 Linda.
 E= -79.8146839570261     Delta-E=       -0.000000017027 Rises=F Damp=F
 DIIS: error= 3.48D-06 at cycle   4 NSaved=   4.
 NSaved= 4 IEnMin= 4 EnMin= -79.8146839570261     IErMin= 4 ErrMin= 3.48D-06
 ErrMax= 3.48D-06  0.00D+00 EMaxC= 1.00D-01 BMatC= 7.54D-10 BMatP= 1.86D-08
 IDIUse=1 WtCom= 1.00D+00 WtEn= 0.00D+00
 Coeff-Com: -0.160D-01 0.267D-01 0.180D+00 0.809D+00
 Coeff:     -0.160D-01 0.267D-01 0.180D+00 0.809D+00
 Gap=     0.452 Goal=   None    Shift=    0.000
 RMSDP=7.71D-08 MaxDP=4.34D-06 DE=-1.70D-08 OVMax= 9.77D-06

 Cycle   9  Pass 1  IDiag  1:
 RMSU=  4.06D-08    CP:  1.00D+00  1.11D+00  8.35D-01  1.02D+00
 CoulSu:  requested number of processors reduced to:  21 ShMem   1 Linda.
 E= -79.8146839577917     Delta-E=       -0.000000000766 Rises=F Damp=F
 DIIS: error= 8.09D-07 at cycle   5 NSaved=   5.
 NSaved= 5 IEnMin= 5 EnMin= -79.8146839577917     IErMin= 5 ErrMin= 8.09D-07
 ErrMax= 8.09D-07  0.00D+00 EMaxC= 1.00D-01 BMatC= 1.35D-11 BMatP= 7.54D-10
 IDIUse=1 WtCom= 1.00D+00 WtEn= 0.00D+00
 Coeff-Com:  0.106D-02-0.187D-01-0.426D-01 0.731D-02 0.105D+01
 Coeff:      0.106D-02-0.187D-01-0.426D-01 0.731D-02 0.105D+01
 Gap=     0.452 Goal=   None    Shift=    0.000
 RMSDP=2.26D-08 MaxDP=1.33D-06 DE=-7.66D-10 OVMax= 3.28D-06

 Cycle  10  Pass 1  IDiag  1:
 RMSU=  8.37D-09    CP:  1.00D+00  1.11D+00  8.45D-01  1.09D+00  1.17D+00
 CoulSu:  requested number of processors reduced to:  21 ShMem   1 Linda.
 E= -79.8146839578110     Delta-E=       -0.000000000019 Rises=F Damp=F
 DIIS: error= 1.80D-08 at cycle   6 NSaved=   6.
 NSaved= 6 IEnMin= 6 EnMin= -79.8146839578110     IErMin= 6 ErrMin= 1.80D-08
 ErrMax= 1.80D-08  0.00D+00 EMaxC= 1.00D-01 BMatC= 2.46D-14 BMatP= 1.35D-11
 IDIUse=1 WtCom= 1.00D+00 WtEn= 0.00D+00
 Coeff-Com:  0.100D-03 0.434D-03-0.579D-04-0.616D-02-0.383D-01 0.104D+01
 Coeff:      0.100D-03 0.434D-03-0.579D-04-0.616D-02-0.383D-01 0.104D+01
 Gap=     0.452 Goal=   None    Shift=    0.000
 RMSDP=1.46D-09 MaxDP=5.06D-08 DE=-1.93D-11 OVMax= 1.35D-07

 SCF Done:  E(RM062X) =  -79.8146839578     A.U. after   10 cycles
            NFock= 10  Conv=0.15D-08     -V/T= 2.0051
 KE= 7.940864053441D+01 PE=-2.687817231594D+02 EE= 6.726309535974D+01
 Leave Link  502 at Fri Apr 16 22:57:36 2021, MaxMem=   104857600 cpu:            1657.5 elap:              45.9
 (Enter /s/ls4/users/knvvv/bin/g16sse/l601.exe)
 Copying SCF densities to generalized density rwf, IOpCl= 0 IROHF=0.

 **********************************************************************

            Population analysis using the SCF density.

 **********************************************************************

 Orbital symmetries:
       Occupied  (A) (A) (A) (A) (A) (A) (A) (A) (A)
       Virtual   (A) (A) (A) (A) (A) (A) (A) (A) (A) (A) (A) (A)
                 (A) (A) (A) (A) (A) (A) (A) (A) (A) (A) (A) (A)
                 (A) (A) (A) (A) (A) (A) (A) (A) (A) (A) (A) (A)
                 (A) (A) (A) (A) (A) (A) (A) (A) (A) (A) (A) (A)
                 (A) (A) (A) (A) (A) (A) (A) (A) (A) (A) (A) (A)
                 (A) (A) (A) (A) (A) (A) (A) (A) (A) (A) (A) (A)
                 (A) (A) (A) (A) (A) (A) (A) (A) (A) (A) (A) (A)
                 (A) (A) (A) (A) (A) (A) (A) (A) (A) (A) (A) (A)
                 (A) (A) (A) (A) (A) (A) (A) (A) (A) (A) (A) (A)
                 (A) (A) (A) (A) (A) (A) (A) (A) (A) (A) (A) (A)
                 (A) (A) (A) (A) (A) (A) (A) (A) (A) (A) (A) (A)
                 (A) (A) (A) (A) (A) (A) (A) (A) (A) (A) (A) (A)
                 (A) (A) (A) (A) (A) (A) (A) (A) (A) (A) (A) (A)
                 (A) (A) (A) (A) (A) (A) (A) (A) (A) (A) (A) (A)
                 (A) (A) (A) (A) (A) (A) (A) (A) (A) (A) (A) (A)
                 (A) (A) (A) (A) (A) (A) (A) (A) (A) (A) (A) (A)
                 (A) (A) (A) (A) (A) (A) (A) (A) (A) (A) (A) (A)
                 (A) (A) (A) (A) (A) (A) (A) (A) (A) (A) (A) (A)
                 (A) (A) (A) (A) (A) (A) (A) (A) (A) (A) (A) (A)
                 (A) (A) (A) (A) (A) (A) (A) (A) (A) (A) (A) (A)
                 (A) (A) (A) (A) (A) (A) (A) (A) (A) (A) (A) (A)
                 (A) (A) (A) (A) (A) (A) (A) (A) (A) (A) (A) (A)
                 (A) (A) (A) (A) (A) (A) (A) (A) (A) (A) (A) (A)
                 (A) (A) (A) (A) (A) (A) (A) (A) (A)
 The electronic state is 1-A.
 Alpha  occ. eigenvalues --  -10.52454 -10.52417  -0.84928  -0.70127  -0.50331
 Alpha  occ. eigenvalues --   -0.50331  -0.42799  -0.40373  -0.40373
 Alpha virt. eigenvalues --    0.04822   0.07108   0.09836   0.09836   0.11822
 Alpha virt. eigenvalues --    0.11822   0.15775   0.17597   0.17597   0.18833
 Alpha virt. eigenvalues --    0.20854   0.20854   0.33604   0.33604   0.35142
 Alpha virt. eigenvalues --    0.36052   0.37265   0.37265   0.37757   0.46390
 Alpha virt. eigenvalues --    0.46390   0.50084   0.50550   0.60661   0.60661
 Alpha virt. eigenvalues --    0.63081   0.67059   0.68249   0.68249   0.73105
 Alpha virt. eigenvalues --    0.73105   0.76345   0.79739   0.79739   0.83628
 Alpha virt. eigenvalues --    0.85700   0.85700   0.86465   0.90794   0.91739
 Alpha virt. eigenvalues --    0.91739   0.96943   1.00056   1.00056   1.01247
 Alpha virt. eigenvalues --    1.08191   1.08191   1.08418   1.08418   1.17159
 Alpha virt. eigenvalues --    1.17364   1.26889   1.26889   1.29256   1.29257
 Alpha virt. eigenvalues --    1.39403   1.45561   1.47102   1.47103   1.47243
 Alpha virt. eigenvalues --    1.47243   1.76406   1.77740   1.82097   1.82097
 Alpha virt. eigenvalues --    1.86959   1.86959   1.92251   1.97732   1.97732
 Alpha virt. eigenvalues --    2.02510   2.02510   2.05700   2.05701   2.06790
 Alpha virt. eigenvalues --    2.07099   2.08420   2.08420   2.12062   2.12954
 Alpha virt. eigenvalues --    2.16840   2.19561   2.19562   2.19580   2.19580
 Alpha virt. eigenvalues --    2.20494   2.22045   2.38773   2.38773   2.45760
 Alpha virt. eigenvalues --    2.50974   2.50974   2.55498   2.55499   2.57937
 Alpha virt. eigenvalues --    2.57937   2.63912   2.64036   2.70808   2.70809
 Alpha virt. eigenvalues --    2.78163   2.78163   2.80666   2.84313   2.84661
 Alpha virt. eigenvalues --    2.84662   2.94200   2.97291   2.97291   2.97552
 Alpha virt. eigenvalues --    2.97553   3.01586   3.01840   3.07583   3.11218
 Alpha virt. eigenvalues --    3.14466   3.14466   3.26856   3.28274   3.28560
 Alpha virt. eigenvalues --    3.28560   3.31890   3.31890   3.49731   3.53693
 Alpha virt. eigenvalues --    3.68249   3.68250   3.73241   3.73241   3.83954
 Alpha virt. eigenvalues --    3.85215   3.88206   3.88206   3.88367   3.89328
 Alpha virt. eigenvalues --    3.89328   4.07929   4.07929   4.21771   4.21771
 Alpha virt. eigenvalues --    4.62151   5.07864   5.07866   5.15766   5.15766
 Alpha virt. eigenvalues --    5.24920   5.39076   5.39077   5.43720   5.44902
 Alpha virt. eigenvalues --    5.44904   5.47584   5.67629   5.67630   5.70913
 Alpha virt. eigenvalues --    5.76401   5.76402   5.78334   5.79564   5.79565
 Alpha virt. eigenvalues --    5.81451   5.81453   5.81735   5.86238   5.89370
 Alpha virt. eigenvalues --    5.98723   5.98724   6.00829   6.02565   6.10800
 Alpha virt. eigenvalues --    6.10802   6.14082   6.14083   6.14401   6.15432
 Alpha virt. eigenvalues --    6.23501   6.27176   6.27177   6.32143   6.36213
 Alpha virt. eigenvalues --    6.36216   6.45430   6.45431   6.53222   6.58596
 Alpha virt. eigenvalues --    6.58597   6.63386   6.63389   6.64234   6.66650
 Alpha virt. eigenvalues --    6.66651   6.75356   6.84573   6.91665   7.04069
 Alpha virt. eigenvalues --    7.04072   7.10310   7.13820   7.25709   7.25711
 Alpha virt. eigenvalues --    7.27671   7.27673   7.27846   7.29871   7.34808
 Alpha virt. eigenvalues --    7.34809   7.40887   7.40888   7.46521   7.47689
 Alpha virt. eigenvalues --    7.47691   7.50533   7.54219   7.54220   7.56345
 Alpha virt. eigenvalues --    7.58909   7.58910   7.60866   7.60868   7.69787
 Alpha virt. eigenvalues --    7.73246   7.73247   7.89775   7.89777   7.91492
 Alpha virt. eigenvalues --    7.97267   8.12836   8.12837   8.13821   8.14009
 Alpha virt. eigenvalues --    8.17547   8.17549   8.22582   8.22585   8.25247
 Alpha virt. eigenvalues --    8.25282   8.25286   8.28869   8.33073   8.35235
 Alpha virt. eigenvalues --    8.35238   8.39779   8.41938   8.41942   8.49590
 Alpha virt. eigenvalues --    8.59441   8.59442   8.63924   8.76634   8.76635
 Alpha virt. eigenvalues --    8.83346   8.83348   8.83360   8.89979   8.89981
 Alpha virt. eigenvalues --    8.94231   9.19356   9.50134   9.50135   9.53845
 Alpha virt. eigenvalues --    9.54527   9.54529   9.67307   9.67308   9.67825
 Alpha virt. eigenvalues --    9.68429   9.68431   9.92795  10.02045  10.05722
 Alpha virt. eigenvalues --   10.05724  10.09290  10.21725  10.21726  10.45179
 Alpha virt. eigenvalues --   11.58324  11.58325  11.62063  11.62063  13.03997
 Alpha virt. eigenvalues --   13.08164  29.10273  29.15546 146.60871 146.65658
          Condensed to atoms (all electrons):
               1          2          3          4          5          6
     1  C    5.303739   0.324723  -0.046047   0.373954  -0.046051  -0.046045
     2  C    0.324723   5.303743   0.373945  -0.046045   0.373944   0.373954
     3  H   -0.046047   0.373945   0.536038  -0.005162  -0.033229  -0.033222
     4  H    0.373954  -0.046045  -0.005162   0.536027  -0.005117   0.008731
     5  H   -0.046051   0.373944  -0.033229  -0.005117   0.536071  -0.033228
     6  H   -0.046045   0.373954  -0.033222   0.008731  -0.033228   0.536026
     7  H    0.373946  -0.046047   0.008731  -0.033223  -0.005162  -0.005117
     8  H    0.373944  -0.046050  -0.005117  -0.033228   0.008732  -0.005162
               7          8
     1  C    0.373946   0.373944
     2  C   -0.046047  -0.046050
     3  H    0.008731  -0.005117
     4  H   -0.033223  -0.033228
     5  H   -0.005162   0.008732
     6  H   -0.005117  -0.005162
     7  H    0.536040  -0.033229
     8  H   -0.033229   0.536071
 Mulliken charges:
               1
     1  C   -0.612163
     2  C   -0.612167
     3  H    0.204063
     4  H    0.204062
     5  H    0.204040
     6  H    0.204064
     7  H    0.204061
     8  H    0.204040
 Sum of Mulliken charges =   0.00000
 Mulliken charges with hydrogens summed into heavy atoms:
               1
     1  C   -0.000000
     2  C    0.000000
 Electronic spatial extent (au):  <R**2>=            109.6578
 Charge=              0.0000 electrons
 Dipole moment (field-independent basis, Debye):
    X=              0.0000    Y=              0.0000    Z=             -0.0000  Tot=              0.0000
 Quadrupole moment (field-independent basis, Debye-Ang):
   XX=            -14.9361   YY=            -14.9414   ZZ=            -15.6332
   XY=             -0.0005   XZ=              0.0055   YZ=              0.0617
 Traceless Quadrupole moment (field-independent basis, Debye-Ang):
   XX=              0.2342   YY=              0.2288   ZZ=             -0.4630
   XY=             -0.0005   XZ=              0.0055   YZ=              0.0617
 Octapole moment (field-independent basis, Debye-Ang**2):
  XXX=              0.0028  YYY=              0.0014  ZZZ=             -0.0000  XYY=             -0.0028
  XXY=             -0.0015  XXZ=             -0.0001  XZZ=             -0.0000  YZZ=              0.0000
  YYZ=              0.0001  XYZ=             -0.0003
 Hexadecapole moment (field-independent basis, Debye-Ang**3):
 XXXX=            -30.2112 YYYY=            -30.1876 ZZZZ=            -95.9503 XXXY=             -0.1124
 XXXZ=              0.9173 YYYX=              0.1717 YYYZ=              1.3383 ZZZX=              0.2775
 ZZZY=              3.1939 XXYY=            -10.3593 XXZZ=            -19.5920 YYZZ=            -20.2033
 XXYZ=              2.1599 YYXZ=             -0.5976 ZZXY=             -0.1121
 N-N= 4.229530330744D+01 E-N=-2.687817230816D+02  KE= 7.940864053441D+01
 PrsmSu:  requested number of processors reduced to:  21 ShMem   1 Linda.
 No NMR shielding tensors so no spin-rotation constants.
 Leave Link  601 at Fri Apr 16 22:57:38 2021, MaxMem=   104857600 cpu:             102.3 elap:               2.3
 (Enter /s/ls4/users/knvvv/bin/g16sse/l801.exe)
 DoSCS=F DFT=T ScalE2(SS,OS)=  1.000000  1.000000
 Range of M.O.s used for correlation:     1   294
 NBasis=   294 NAE=     9 NBE=     9 NFC=     0 NFV=     0
 NROrb=    294 NOA=     9 NOB=     9 NVA=   285 NVB=   285

 **** Warning!!: The largest alpha MO coefficient is  0.28759385D+02

 Leave Link  801 at Fri Apr 16 22:57:39 2021, MaxMem=   104857600 cpu:               3.9 elap:               0.1
 (Enter /s/ls4/users/knvvv/bin/g16sse/l914.exe)
 RHF ground state
 Doing stability rather than CIS.
 Two-electron integrals replicated using symmetry.
 MDV=   104857600 DFT=T DoStab=T Mixed=T DoRPA=F DoScal=F NonHer=F
 Making orbital integer symmetry assigments:
 Orbital symmetries:
       Occupied  (A) (A) (A) (A) (A) (A) (A) (A) (A)
       Virtual   (A) (A) (A) (A) (A) (A) (A) (A) (A) (A) (A) (A)
                 (A) (A) (A) (A) (A) (A) (A) (A) (A) (A) (A) (A)
                 (A) (A) (A) (A) (A) (A) (A) (A) (A) (A) (A) (A)
                 (A) (A) (A) (A) (A) (A) (A) (A) (A) (A) (A) (A)
                 (A) (A) (A) (A) (A) (A) (A) (A) (A) (A) (A) (A)
                 (A) (A) (A) (A) (A) (A) (A) (A) (A) (A) (A) (A)
                 (A) (A) (A) (A) (A) (A) (A) (A) (A) (A) (A) (A)
                 (A) (A) (A) (A) (A) (A) (A) (A) (A) (A) (A) (A)
                 (A) (A) (A) (A) (A) (A) (A) (A) (A) (A) (A) (A)
                 (A) (A) (A) (A) (A) (A) (A) (A) (A) (A) (A) (A)
                 (A) (A) (A) (A) (A) (A) (A) (A) (A) (A) (A) (A)
                 (A) (A) (A) (A) (A) (A) (A) (A) (A) (A) (A) (A)
                 (A) (A) (A) (A) (A) (A) (A) (A) (A) (A) (A) (A)
                 (A) (A) (A) (A) (A) (A) (A) (A) (A) (A) (A) (A)
                 (A) (A) (A) (A) (A) (A) (A) (A) (A) (A) (A) (A)
                 (A) (A) (A) (A) (A) (A) (A) (A) (A) (A) (A) (A)
                 (A) (A) (A) (A) (A) (A) (A) (A) (A) (A) (A) (A)
                 (A) (A) (A) (A) (A) (A) (A) (A) (A) (A) (A) (A)
                 (A) (A) (A) (A) (A) (A) (A) (A) (A) (A) (A) (A)
                 (A) (A) (A) (A) (A) (A) (A) (A) (A) (A) (A) (A)
                 (A) (A) (A) (A) (A) (A) (A) (A) (A) (A) (A) (A)
                 (A) (A) (A) (A) (A) (A) (A) (A) (A) (A) (A) (A)
                 (A) (A) (A) (A) (A) (A) (A) (A) (A) (A) (A) (A)
                 (A) (A) (A) (A) (A) (A) (A) (A) (A)
    24 initial guesses have been made.
 Convergence on wavefunction:    0.001000000000000
 Davidson Disk Diagonalization:  ConvIn= 1.00D-03 SkipCon=T Conv= 1.00D-03.
 Max sub-space:  2000 roots to seek:    24 dimension of matrix:         5130
 Iteration     1 Dimension    24 NMult     0 NNew     24
 Estimated number of processors is:   18
 CISAX will form     1 AO SS matrices at one time.
 NMat=     1 NSing=     1 JSym2X= 0.
 FoFJK:  IHMeth= 1 ICntrl=       0 DoSepK=F KAlg= 0 I1Cent=           0 FoldK=F
 IRaf= 990000000 NMat=       1 IRICut=       1 DoRegI=T DoRafI=F ISym2E= 0 IDoP0=0 IntGTp=1.
 FoFCou: FMM=F IPFlag=           0 FMFlag=      100000 FMFlg1=           0
         NFxFlg=           0 DoJE=F BraDBF=F KetDBF=F FulRan=T
         wScrn=  0.000000 ICntrl=         0 IOpCl=  0 I1Cent=           0 NGrid=           0
         NMat0=    1 NMatS0=      1 NMatT0=    0 NMatD0=    1 NMtDS0=    0 NMtDT0=    0
 Symmetry not used in FoFCou.
 CoulSu:  requested number of processors reduced to:  21 ShMem   1 Linda.
 NMat=     1 NSing=     1 JSym2X= 0.
 CoulSu:  requested number of processors reduced to:  21 ShMem   1 Linda.
 NMat=     1 NSing=     1 JSym2X= 0.
 CoulSu:  requested number of processors reduced to:  21 ShMem   1 Linda.
 NMat=     1 NSing=     1 JSym2X= 0.
 CoulSu:  requested number of processors reduced to:  21 ShMem   1 Linda.
 NMat=     1 NSing=     1 JSym2X= 0.
 CoulSu:  requested number of processors reduced to:  21 ShMem   1 Linda.
 NMat=     1 NSing=     1 JSym2X= 0.
 CoulSu:  requested number of processors reduced to:  21 ShMem   1 Linda.
 NMat=     1 NSing=     1 JSym2X= 0.
 CoulSu:  requested number of processors reduced to:  21 ShMem   1 Linda.
 NMat=     1 NSing=     1 JSym2X= 0.
 CoulSu:  requested number of processors reduced to:  21 ShMem   1 Linda.
 NMat=     1 NSing=     1 JSym2X= 0.
 CoulSu:  requested number of processors reduced to:  21 ShMem   1 Linda.
 NMat=     1 NSing=     1 JSym2X= 0.
 CoulSu:  requested number of processors reduced to:  21 ShMem   1 Linda.
 NMat=     1 NSing=     1 JSym2X= 0.
 CoulSu:  requested number of processors reduced to:  21 ShMem   1 Linda.
 NMat=     1 NSing=     1 JSym2X= 0.
 CoulSu:  requested number of processors reduced to:  21 ShMem   1 Linda.
 NMat=     1 NSing=     0 JSym2X= 0.
 CoulSu:  requested number of processors reduced to:  21 ShMem   1 Linda.
 NMat=     1 NSing=     0 JSym2X= 0.
 CoulSu:  requested number of processors reduced to:  21 ShMem   1 Linda.
 NMat=     1 NSing=     0 JSym2X= 0.
 CoulSu:  requested number of processors reduced to:  21 ShMem   1 Linda.
 NMat=     1 NSing=     0 JSym2X= 0.
 CoulSu:  requested number of processors reduced to:  21 ShMem   1 Linda.
 NMat=     1 NSing=     0 JSym2X= 0.
 CoulSu:  requested number of processors reduced to:  21 ShMem   1 Linda.
 NMat=     1 NSing=     0 JSym2X= 0.
 CoulSu:  requested number of processors reduced to:  21 ShMem   1 Linda.
 NMat=     1 NSing=     0 JSym2X= 0.
 CoulSu:  requested number of processors reduced to:  21 ShMem   1 Linda.
 NMat=     1 NSing=     0 JSym2X= 0.
 CoulSu:  requested number of processors reduced to:  21 ShMem   1 Linda.
 NMat=     1 NSing=     0 JSym2X= 0.
 CoulSu:  requested number of processors reduced to:  21 ShMem   1 Linda.
 NMat=     1 NSing=     0 JSym2X= 0.
 CoulSu:  requested number of processors reduced to:  21 ShMem   1 Linda.
 NMat=     1 NSing=     0 JSym2X= 0.
 CoulSu:  requested number of processors reduced to:  21 ShMem   1 Linda.
 NMat=     1 NSing=     0 JSym2X= 0.
 CoulSu:  requested number of processors reduced to:  21 ShMem   1 Linda.
 New state      1 was old state      2
 Excitation Energies [eV] at current iteration:
 Root      1 :     9.556216580727625
 Root      2 :     9.556241450784112
 Root      3 :     9.613779461417414
 Root      4 :     9.613806621660363
 Root      5 :    10.016310413650100
 Root      6 :    10.442640607893880
 Root      7 :    10.442667459255910
 Root      8 :    10.477298392882230
 Root      9 :    10.556872614012630
 Root     10 :    10.556901710342940
 Root     11 :    10.999212628723420
 Root     12 :    11.020383346052340
 Root     13 :    11.036576239642760
 Root     14 :    11.074222765792960
 Root     15 :    11.074239263585860
 Root     16 :    11.104756274746960
 Root     17 :    11.104772485602720
 Root     18 :    11.250795671252930
 Root     19 :    11.418718713184550
 Root     20 :    11.447834760325740
 Root     21 :    11.450650363080970
 Root     22 :    11.576642336322740
 Root     23 :    12.047411025817140
 Root     24 :    12.104218401215550
 Iteration     2 Dimension    48 NMult    24 NNew     24
 Estimated number of processors is:   18
 CISAX will form     1 AO SS matrices at one time.
 NMat=     1 NSing=     1 JSym2X= 0.
 CoulSu:  requested number of processors reduced to:  21 ShMem   1 Linda.
 NMat=     1 NSing=     1 JSym2X= 0.
 CoulSu:  requested number of processors reduced to:  21 ShMem   1 Linda.
 NMat=     1 NSing=     1 JSym2X= 0.
 CoulSu:  requested number of processors reduced to:  21 ShMem   1 Linda.
 NMat=     1 NSing=     1 JSym2X= 0.
 CoulSu:  requested number of processors reduced to:  21 ShMem   1 Linda.
 NMat=     1 NSing=     1 JSym2X= 0.
 CoulSu:  requested number of processors reduced to:  21 ShMem   1 Linda.
 NMat=     1 NSing=     1 JSym2X= 0.
 CoulSu:  requested number of processors reduced to:  21 ShMem   1 Linda.
 NMat=     1 NSing=     1 JSym2X= 0.
 CoulSu:  requested number of processors reduced to:  21 ShMem   1 Linda.
 NMat=     1 NSing=     1 JSym2X= 0.
 CoulSu:  requested number of processors reduced to:  21 ShMem   1 Linda.
 NMat=     1 NSing=     1 JSym2X= 0.
 CoulSu:  requested number of processors reduced to:  21 ShMem   1 Linda.
 NMat=     1 NSing=     1 JSym2X= 0.
 CoulSu:  requested number of processors reduced to:  21 ShMem   1 Linda.
 NMat=     1 NSing=     1 JSym2X= 0.
 CoulSu:  requested number of processors reduced to:  21 ShMem   1 Linda.
 NMat=     1 NSing=     1 JSym2X= 0.
 CoulSu:  requested number of processors reduced to:  21 ShMem   1 Linda.
 NMat=     1 NSing=     0 JSym2X= 0.
 CoulSu:  requested number of processors reduced to:  21 ShMem   1 Linda.
 NMat=     1 NSing=     0 JSym2X= 0.
 CoulSu:  requested number of processors reduced to:  21 ShMem   1 Linda.
 NMat=     1 NSing=     0 JSym2X= 0.
 CoulSu:  requested number of processors reduced to:  21 ShMem   1 Linda.
 NMat=     1 NSing=     0 JSym2X= 0.
 CoulSu:  requested number of processors reduced to:  21 ShMem   1 Linda.
 NMat=     1 NSing=     0 JSym2X= 0.
 CoulSu:  requested number of processors reduced to:  21 ShMem   1 Linda.
 NMat=     1 NSing=     0 JSym2X= 0.
 CoulSu:  requested number of processors reduced to:  21 ShMem   1 Linda.
 NMat=     1 NSing=     0 JSym2X= 0.
 CoulSu:  requested number of processors reduced to:  21 ShMem   1 Linda.
 NMat=     1 NSing=     0 JSym2X= 0.
 CoulSu:  requested number of processors reduced to:  21 ShMem   1 Linda.
 NMat=     1 NSing=     0 JSym2X= 0.
 CoulSu:  requested number of processors reduced to:  21 ShMem   1 Linda.
 NMat=     1 NSing=     0 JSym2X= 0.
 CoulSu:  requested number of processors reduced to:  21 ShMem   1 Linda.
 NMat=     1 NSing=     0 JSym2X= 0.
 CoulSu:  requested number of processors reduced to:  21 ShMem   1 Linda.
 NMat=     1 NSing=     0 JSym2X= 0.
 CoulSu:  requested number of processors reduced to:  21 ShMem   1 Linda.
 New state      1 was old state      2
 Root      1 not converged, maximum delta is    0.106013892795958
 Excitation Energies [eV] at current iteration:
 Root      1 :     9.179131859222123   Change is   -0.377109591561990
 Root      2 :     9.179641367782651   Change is   -0.376575212944975
 Root      3 :     9.492664294284326   Change is   -0.121115167133089
 Root      4 :     9.493417636250445   Change is   -0.120388985409917
 Root      5 :     9.710026374317209   Change is   -0.306284039332892
 Root      6 :    10.018617053803800   Change is   -0.424023554090087
 Root      7 :    10.018644498917900   Change is   -0.424022960338011
 Root      8 :    10.242344589179350   Change is   -0.234953803702872
 Root      9 :    10.248981089890770   Change is   -0.750231538832656
 Root     10 :    10.420031492064790   Change is   -0.136841121947844
 Root     11 :    10.420060928865110   Change is   -0.136840781477828
 Root     12 :    10.779872846460040   Change is   -0.294349919332924
 Root     13 :    10.779912632461380   Change is   -0.294326631124485
 Root     14 :    10.877134246620430   Change is   -0.541584466564115
 Root     15 :    10.902721069405210   Change is   -0.117662276647133
 Root     16 :    10.916386838098740   Change is   -0.120189401544026
 Root     17 :    10.918981237443790   Change is   -0.528853522881948
 Root     18 :    10.944583873261060   Change is   -0.160172401485894
 Root     19 :    10.944604132110450   Change is   -0.160168353492276
 Root     20 :    11.075618515173210   Change is   -0.375031847907758
 Root     21 :    11.123407172155860   Change is   -0.127388499097072
 Root     22 :    11.410726937733920   Change is   -0.165915398588828
 Root     23 :    11.509547387204390   Change is   -0.537863638612747
 Root     24 :    11.663790865040450   Change is   -0.440427536175101
 Iteration     3 Dimension    54 NMult    48 NNew      6
 Estimated number of processors is:   18
 CISAX will form     1 AO SS matrices at one time.
 NMat=     1 NSing=     1 JSym2X= 0.
 CoulSu:  requested number of processors reduced to:  21 ShMem   1 Linda.
 NMat=     1 NSing=     1 JSym2X= 0.
 CoulSu:  requested number of processors reduced to:  21 ShMem   1 Linda.
 NMat=     1 NSing=     1 JSym2X= 0.
 CoulSu:  requested number of processors reduced to:  21 ShMem   1 Linda.
 NMat=     1 NSing=     0 JSym2X= 0.
 CoulSu:  requested number of processors reduced to:  21 ShMem   1 Linda.
 NMat=     1 NSing=     0 JSym2X= 0.
 CoulSu:  requested number of processors reduced to:  21 ShMem   1 Linda.
 NMat=     1 NSing=     0 JSym2X= 0.
 CoulSu:  requested number of processors reduced to:  21 ShMem   1 Linda.
 Root      1 not converged, maximum delta is    0.022769543714016
 Excitation Energies [eV] at current iteration:
 Root      1 :     9.140766836458862   Change is   -0.038365022763261
 Root      2 :     9.141015654080778   Change is   -0.038625713701872
 Root      3 :     9.485448158036437   Change is   -0.007216136247889
 Root      4 :     9.485706318690385   Change is   -0.007711317560060
 Root      5 :     9.647432347911574   Change is   -0.062594026405635
 Root      6 :    10.210108059616180   Change is   -0.032236529563175
 Iteration     4 Dimension    60 NMult    54 NNew      6
 Estimated number of processors is:   18
 CISAX will form     1 AO SS matrices at one time.
 NMat=     1 NSing=     1 JSym2X= 0.
 CoulSu:  requested number of processors reduced to:  21 ShMem   1 Linda.
 NMat=     1 NSing=     1 JSym2X= 0.
 CoulSu:  requested number of processors reduced to:  21 ShMem   1 Linda.
 NMat=     1 NSing=     1 JSym2X= 0.
 CoulSu:  requested number of processors reduced to:  21 ShMem   1 Linda.
 NMat=     1 NSing=     0 JSym2X= 0.
 CoulSu:  requested number of processors reduced to:  21 ShMem   1 Linda.
 NMat=     1 NSing=     0 JSym2X= 0.
 CoulSu:  requested number of processors reduced to:  21 ShMem   1 Linda.
 NMat=     1 NSing=     0 JSym2X= 0.
 CoulSu:  requested number of processors reduced to:  21 ShMem   1 Linda.
 Root      1 not converged, maximum delta is    0.017265757197831
 Excitation Energies [eV] at current iteration:
 Root      1 :     9.135465828553889   Change is   -0.005301007904973
 Root      2 :     9.135633015693692   Change is   -0.005382638387087
 Root      3 :     9.485115214793698   Change is   -0.000332943242739
 Root      4 :     9.485173287177023   Change is   -0.000533031513363
 Root      5 :     9.621970100231049   Change is   -0.025462247680525
 Root      6 :    10.207391606262930   Change is   -0.002716453353254
 Iteration     5 Dimension    66 NMult    60 NNew      6
 Estimated number of processors is:   18
 CISAX will form     1 AO SS matrices at one time.
 NMat=     1 NSing=     1 JSym2X= 0.
 CoulSu:  requested number of processors reduced to:  21 ShMem   1 Linda.
 NMat=     1 NSing=     1 JSym2X= 0.
 CoulSu:  requested number of processors reduced to:  21 ShMem   1 Linda.
 NMat=     1 NSing=     1 JSym2X= 0.
 CoulSu:  requested number of processors reduced to:  21 ShMem   1 Linda.
 NMat=     1 NSing=     0 JSym2X= 0.
 CoulSu:  requested number of processors reduced to:  21 ShMem   1 Linda.
 NMat=     1 NSing=     0 JSym2X= 0.
 CoulSu:  requested number of processors reduced to:  21 ShMem   1 Linda.
 NMat=     1 NSing=     0 JSym2X= 0.
 CoulSu:  requested number of processors reduced to:  21 ShMem   1 Linda.
 New state      1 was old state      2
 Root      1 not converged, maximum delta is    0.471140566549780
 Excitation Energies [eV] at current iteration:
 Root      1 :     9.134909458443781   Change is   -0.000723557249910
 Root      2 :     9.134914526779598   Change is   -0.000551301774290
 Root      3 :     9.485084943488422   Change is   -0.000030271305275
 Root      4 :     9.485112943069742   Change is   -0.000060344107280
 Root      5 :     9.617588638568437   Change is   -0.004381461662613
 Root      6 :    10.206838535540760   Change is   -0.000553070722168
 Iteration     6 Dimension    72 NMult    66 NNew      6
 Estimated number of processors is:   18
 CISAX will form     1 AO SS matrices at one time.
 NMat=     1 NSing=     1 JSym2X= 0.
 CoulSu:  requested number of processors reduced to:  21 ShMem   1 Linda.
 NMat=     1 NSing=     1 JSym2X= 0.
 CoulSu:  requested number of processors reduced to:  21 ShMem   1 Linda.
 NMat=     1 NSing=     1 JSym2X= 0.
 CoulSu:  requested number of processors reduced to:  21 ShMem   1 Linda.
 NMat=     1 NSing=     0 JSym2X= 0.
 CoulSu:  requested number of processors reduced to:  21 ShMem   1 Linda.
 NMat=     1 NSing=     0 JSym2X= 0.
 CoulSu:  requested number of processors reduced to:  21 ShMem   1 Linda.
 NMat=     1 NSing=     0 JSym2X= 0.
 CoulSu:  requested number of processors reduced to:  21 ShMem   1 Linda.
 Root      1 not converged, maximum delta is    0.391888057694841
 Excitation Energies [eV] at current iteration:
 Root      1 :     9.134853113621997   Change is   -0.000056344821785
 Root      2 :     9.134877451193342   Change is   -0.000037075586257
 Root      3 :     9.485082895171326   Change is   -0.000002048317097
 Root      4 :     9.485107994814015   Change is   -0.000004948255727
 Root      5 :     9.617057310318113   Change is   -0.000531328250323
 Root      6 :    10.206771988540120   Change is   -0.000066547000638
 Iteration     7 Dimension    78 NMult    72 NNew      6
 Estimated number of processors is:   18
 CISAX will form     1 AO SS matrices at one time.
 NMat=     1 NSing=     1 JSym2X= 0.
 CoulSu:  requested number of processors reduced to:  21 ShMem   1 Linda.
 NMat=     1 NSing=     1 JSym2X= 0.
 CoulSu:  requested number of processors reduced to:  21 ShMem   1 Linda.
 NMat=     1 NSing=     1 JSym2X= 0.
 CoulSu:  requested number of processors reduced to:  21 ShMem   1 Linda.
 NMat=     1 NSing=     0 JSym2X= 0.
 CoulSu:  requested number of processors reduced to:  21 ShMem   1 Linda.
 NMat=     1 NSing=     0 JSym2X= 0.
 CoulSu:  requested number of processors reduced to:  21 ShMem   1 Linda.
 NMat=     1 NSing=     0 JSym2X= 0.
 CoulSu:  requested number of processors reduced to:  21 ShMem   1 Linda.
 Root      1 not converged, maximum delta is    0.008141899031932
 Excitation Energies [eV] at current iteration:
 Root      1 :     9.134848210465101   Change is   -0.000004903156896
 Root      2 :     9.134875674075106   Change is   -0.000001777118235
 Root      3 :     9.485082788182453   Change is   -0.000000106988873
 Root      4 :     9.485107755030176   Change is   -0.000000239783839
 Root      5 :     9.617019568952722   Change is   -0.000037741365391
 Root      6 :    10.206765108997790   Change is   -0.000006879542327
 Iteration     8 Dimension    84 NMult    78 NNew      6
 Estimated number of processors is:   18
 CISAX will form     1 AO SS matrices at one time.
 NMat=     1 NSing=     1 JSym2X= 0.
 CoulSu:  requested number of processors reduced to:  21 ShMem   1 Linda.
 NMat=     1 NSing=     1 JSym2X= 0.
 CoulSu:  requested number of processors reduced to:  21 ShMem   1 Linda.
 NMat=     1 NSing=     1 JSym2X= 0.
 CoulSu:  requested number of processors reduced to:  21 ShMem   1 Linda.
 NMat=     1 NSing=     0 JSym2X= 0.
 CoulSu:  requested number of processors reduced to:  21 ShMem   1 Linda.
 NMat=     1 NSing=     0 JSym2X= 0.
 CoulSu:  requested number of processors reduced to:  21 ShMem   1 Linda.
 NMat=     1 NSing=     0 JSym2X= 0.
 CoulSu:  requested number of processors reduced to:  21 ShMem   1 Linda.
 Root      1 not converged, maximum delta is    0.001046675151454
 Excitation Energies [eV] at current iteration:
 Root      1 :     9.134847755736308   Change is   -0.000000454728793
 Root      2 :     9.134875610453394   Change is   -0.000000063621713
 Root      3 :     9.485082777221589   Change is   -0.000000010960864
 Root      4 :     9.485107737848180   Change is   -0.000000017181996
 Root      5 :     9.617017286127499   Change is   -0.000002282825223
 Root      6 :    10.206764522634660   Change is   -0.000000586363134
 Convergence on energies, max DE= 2.28D-06.
 Convergence on expansion vectors.
 ***********************************************************************
 Stability analysis using <AA,BB:AA,BB> singles matrix:
 ***********************************************************************
 1PDM for each excited state written to RWF  633
 Ground to excited state transition densities written to RWF  633

 Eigenvectors of the stability matrix:
 
 Eigenvector   1:      Triplet-A    Eigenvalue= 0.3356995  <S**2>=2.000
       8 -> 10        -0.11708
       9 -> 10         0.66688
       9 -> 25        -0.10934
 
 Eigenvector   2:      Triplet-A    Eigenvalue= 0.3357005  <S**2>=2.000
       8 -> 10         0.66688
       8 -> 25        -0.10935
       9 -> 10         0.11708
 
 Eigenvector   3:      Singlet-A    Eigenvalue= 0.3485704  <S**2>=0.000
       9 -> 10         0.70049
 
 Eigenvector   4:      Singlet-A    Eigenvalue= 0.3485713  <S**2>=0.000
       8 -> 10         0.70050
 
 Eigenvector   5:      Triplet-A    Eigenvalue= 0.3534189  <S**2>=2.000
       7 -> 10         0.65229
       7 -> 25        -0.10334
       8 -> 14         0.10592
       9 -> 15        -0.10597
 
 Eigenvector   6:      Singlet-A    Eigenvalue= 0.3750917  <S**2>=0.000
       7 -> 10         0.69217
 The wavefunction is stable under the perturbations considered.
 Leave Link  914 at Fri Apr 16 23:11:04 2021, MaxMem=   104857600 cpu:           33169.1 elap:             805.3
 (Enter /s/ls4/users/knvvv/bin/g16sse/l508.exe)
 The wavefunction is already stable.
 Leave Link  508 at Fri Apr 16 23:11:04 2021, MaxMem=   104857600 cpu:               2.2 elap:               0.1
 (Enter /s/ls4/users/knvvv/bin/g16sse/l601.exe)
 Copying SCF densities to generalized density rwf, IOpCl= 0 IROHF=0.

 **********************************************************************

            Population analysis using the SCF density.

 **********************************************************************

 Orbital symmetries:
       Occupied  (A) (A) (A) (A) (A) (A) (A) (A) (A)
       Virtual   (A) (A) (A) (A) (A) (A) (A) (A) (A) (A) (A) (A)
                 (A) (A) (A) (A) (A) (A) (A) (A) (A) (A) (A) (A)
                 (A) (A) (A) (A) (A) (A) (A) (A) (A) (A) (A) (A)
                 (A) (A) (A) (A) (A) (A) (A) (A) (A) (A) (A) (A)
                 (A) (A) (A) (A) (A) (A) (A) (A) (A) (A) (A) (A)
                 (A) (A) (A) (A) (A) (A) (A) (A) (A) (A) (A) (A)
                 (A) (A) (A) (A) (A) (A) (A) (A) (A) (A) (A) (A)
                 (A) (A) (A) (A) (A) (A) (A) (A) (A) (A) (A) (A)
                 (A) (A) (A) (A) (A) (A) (A) (A) (A) (A) (A) (A)
                 (A) (A) (A) (A) (A) (A) (A) (A) (A) (A) (A) (A)
                 (A) (A) (A) (A) (A) (A) (A) (A) (A) (A) (A) (A)
                 (A) (A) (A) (A) (A) (A) (A) (A) (A) (A) (A) (A)
                 (A) (A) (A) (A) (A) (A) (A) (A) (A) (A) (A) (A)
                 (A) (A) (A) (A) (A) (A) (A) (A) (A) (A) (A) (A)
                 (A) (A) (A) (A) (A) (A) (A) (A) (A) (A) (A) (A)
                 (A) (A) (A) (A) (A) (A) (A) (A) (A) (A) (A) (A)
                 (A) (A) (A) (A) (A) (A) (A) (A) (A) (A) (A) (A)
                 (A) (A) (A) (A) (A) (A) (A) (A) (A) (A) (A) (A)
                 (A) (A) (A) (A) (A) (A) (A) (A) (A) (A) (A) (A)
                 (A) (A) (A) (A) (A) (A) (A) (A) (A) (A) (A) (A)
                 (A) (A) (A) (A) (A) (A) (A) (A) (A) (A) (A) (A)
                 (A) (A) (A) (A) (A) (A) (A) (A) (A) (A) (A) (A)
                 (A) (A) (A) (A) (A) (A) (A) (A) (A) (A) (A) (A)
                 (A) (A) (A) (A) (A) (A) (A) (A) (A)
 The electronic state is 1-A.
 Alpha  occ. eigenvalues --  -10.52454 -10.52417  -0.84928  -0.70127  -0.50331
 Alpha  occ. eigenvalues --   -0.50331  -0.42799  -0.40373  -0.40373
 Alpha virt. eigenvalues --    0.04822   0.07108   0.09836   0.09836   0.11822
 Alpha virt. eigenvalues --    0.11822   0.15775   0.17597   0.17597   0.18833
 Alpha virt. eigenvalues --    0.20854   0.20854   0.33604   0.33604   0.35142
 Alpha virt. eigenvalues --    0.36052   0.37265   0.37265   0.37757   0.46390
 Alpha virt. eigenvalues --    0.46390   0.50084   0.50550   0.60661   0.60661
 Alpha virt. eigenvalues --    0.63081   0.67059   0.68249   0.68249   0.73105
 Alpha virt. eigenvalues --    0.73105   0.76345   0.79739   0.79739   0.83628
 Alpha virt. eigenvalues --    0.85700   0.85700   0.86465   0.90794   0.91739
 Alpha virt. eigenvalues --    0.91739   0.96943   1.00056   1.00056   1.01247
 Alpha virt. eigenvalues --    1.08191   1.08191   1.08418   1.08418   1.17159
 Alpha virt. eigenvalues --    1.17364   1.26889   1.26889   1.29256   1.29257
 Alpha virt. eigenvalues --    1.39403   1.45561   1.47102   1.47103   1.47243
 Alpha virt. eigenvalues --    1.47243   1.76406   1.77740   1.82097   1.82097
 Alpha virt. eigenvalues --    1.86959   1.86959   1.92251   1.97732   1.97732
 Alpha virt. eigenvalues --    2.02510   2.02510   2.05700   2.05701   2.06790
 Alpha virt. eigenvalues --    2.07099   2.08420   2.08420   2.12062   2.12954
 Alpha virt. eigenvalues --    2.16840   2.19561   2.19562   2.19580   2.19580
 Alpha virt. eigenvalues --    2.20494   2.22045   2.38773   2.38773   2.45760
 Alpha virt. eigenvalues --    2.50974   2.50974   2.55498   2.55499   2.57937
 Alpha virt. eigenvalues --    2.57937   2.63912   2.64036   2.70808   2.70809
 Alpha virt. eigenvalues --    2.78163   2.78163   2.80666   2.84313   2.84661
 Alpha virt. eigenvalues --    2.84662   2.94200   2.97291   2.97291   2.97552
 Alpha virt. eigenvalues --    2.97553   3.01586   3.01840   3.07583   3.11218
 Alpha virt. eigenvalues --    3.14466   3.14466   3.26856   3.28274   3.28560
 Alpha virt. eigenvalues --    3.28560   3.31890   3.31890   3.49731   3.53693
 Alpha virt. eigenvalues --    3.68249   3.68250   3.73241   3.73241   3.83954
 Alpha virt. eigenvalues --    3.85215   3.88206   3.88206   3.88367   3.89328
 Alpha virt. eigenvalues --    3.89328   4.07929   4.07929   4.21771   4.21771
 Alpha virt. eigenvalues --    4.62151   5.07864   5.07866   5.15766   5.15766
 Alpha virt. eigenvalues --    5.24920   5.39076   5.39077   5.43720   5.44902
 Alpha virt. eigenvalues --    5.44904   5.47584   5.67629   5.67630   5.70913
 Alpha virt. eigenvalues --    5.76401   5.76402   5.78334   5.79564   5.79565
 Alpha virt. eigenvalues --    5.81451   5.81453   5.81735   5.86238   5.89370
 Alpha virt. eigenvalues --    5.98723   5.98724   6.00829   6.02565   6.10800
 Alpha virt. eigenvalues --    6.10802   6.14082   6.14083   6.14401   6.15432
 Alpha virt. eigenvalues --    6.23501   6.27176   6.27177   6.32143   6.36213
 Alpha virt. eigenvalues --    6.36216   6.45430   6.45431   6.53222   6.58596
 Alpha virt. eigenvalues --    6.58597   6.63386   6.63389   6.64234   6.66650
 Alpha virt. eigenvalues --    6.66651   6.75356   6.84573   6.91665   7.04069
 Alpha virt. eigenvalues --    7.04072   7.10310   7.13820   7.25709   7.25711
 Alpha virt. eigenvalues --    7.27671   7.27673   7.27846   7.29871   7.34808
 Alpha virt. eigenvalues --    7.34809   7.40887   7.40888   7.46521   7.47689
 Alpha virt. eigenvalues --    7.47691   7.50533   7.54219   7.54220   7.56345
 Alpha virt. eigenvalues --    7.58909   7.58910   7.60866   7.60868   7.69787
 Alpha virt. eigenvalues --    7.73246   7.73247   7.89775   7.89777   7.91492
 Alpha virt. eigenvalues --    7.97267   8.12836   8.12837   8.13821   8.14009
 Alpha virt. eigenvalues --    8.17547   8.17549   8.22582   8.22585   8.25247
 Alpha virt. eigenvalues --    8.25282   8.25286   8.28869   8.33073   8.35235
 Alpha virt. eigenvalues --    8.35238   8.39779   8.41938   8.41942   8.49590
 Alpha virt. eigenvalues --    8.59441   8.59442   8.63924   8.76634   8.76635
 Alpha virt. eigenvalues --    8.83346   8.83348   8.83360   8.89979   8.89981
 Alpha virt. eigenvalues --    8.94231   9.19356   9.50134   9.50135   9.53845
 Alpha virt. eigenvalues --    9.54527   9.54529   9.67307   9.67308   9.67825
 Alpha virt. eigenvalues --    9.68429   9.68431   9.92795  10.02045  10.05722
 Alpha virt. eigenvalues --   10.05724  10.09290  10.21725  10.21726  10.45179
 Alpha virt. eigenvalues --   11.58324  11.58325  11.62063  11.62063  13.03997
 Alpha virt. eigenvalues --   13.08164  29.10273  29.15546 146.60871 146.65658
          Condensed to atoms (all electrons):
               1          2          3          4          5          6
     1  C    5.303739   0.324723  -0.046047   0.373954  -0.046051  -0.046045
     2  C    0.324723   5.303743   0.373945  -0.046045   0.373944   0.373954
     3  H   -0.046047   0.373945   0.536038  -0.005162  -0.033229  -0.033222
     4  H    0.373954  -0.046045  -0.005162   0.536027  -0.005117   0.008731
     5  H   -0.046051   0.373944  -0.033229  -0.005117   0.536071  -0.033228
     6  H   -0.046045   0.373954  -0.033222   0.008731  -0.033228   0.536026
     7  H    0.373946  -0.046047   0.008731  -0.033223  -0.005162  -0.005117
     8  H    0.373944  -0.046050  -0.005117  -0.033228   0.008732  -0.005162
               7          8
     1  C    0.373946   0.373944
     2  C   -0.046047  -0.046050
     3  H    0.008731  -0.005117
     4  H   -0.033223  -0.033228
     5  H   -0.005162   0.008732
     6  H   -0.005117  -0.005162
     7  H    0.536040  -0.033229
     8  H   -0.033229   0.536071
 Mulliken charges:
               1
     1  C   -0.612163
     2  C   -0.612167
     3  H    0.204063
     4  H    0.204062
     5  H    0.204040
     6  H    0.204064
     7  H    0.204061
     8  H    0.204040
 Sum of Mulliken charges =   0.00000
 Mulliken charges with hydrogens summed into heavy atoms:
               1
     1  C   -0.000000
     2  C    0.000000
 Electronic spatial extent (au):  <R**2>=            109.6578
 Charge=              0.0000 electrons
 Dipole moment (field-independent basis, Debye):
    X=              0.0000    Y=              0.0000    Z=             -0.0000  Tot=              0.0000
 Quadrupole moment (field-independent basis, Debye-Ang):
   XX=            -14.9361   YY=            -14.9414   ZZ=            -15.6332
   XY=             -0.0005   XZ=              0.0055   YZ=              0.0617
 Traceless Quadrupole moment (field-independent basis, Debye-Ang):
   XX=              0.2342   YY=              0.2288   ZZ=             -0.4630
   XY=             -0.0005   XZ=              0.0055   YZ=              0.0617
 Octapole moment (field-independent basis, Debye-Ang**2):
  XXX=              0.0028  YYY=              0.0014  ZZZ=             -0.0000  XYY=             -0.0028
  XXY=             -0.0015  XXZ=             -0.0001  XZZ=             -0.0000  YZZ=              0.0000
  YYZ=              0.0001  XYZ=             -0.0003
 Hexadecapole moment (field-independent basis, Debye-Ang**3):
 XXXX=            -30.2112 YYYY=            -30.1876 ZZZZ=            -95.9503 XXXY=             -0.1124
 XXXZ=              0.9173 YYYX=              0.1717 YYYZ=              1.3383 ZZZX=              0.2775
 ZZZY=              3.1939 XXYY=            -10.3593 XXZZ=            -19.5920 YYZZ=            -20.2033
 XXYZ=              2.1599 YYXZ=             -0.5976 ZZXY=             -0.1121
 N-N= 4.229530330744D+01 E-N=-2.687817230816D+02  KE= 7.940864053441D+01
 PrsmSu:  requested number of processors reduced to:  21 ShMem   1 Linda.
 No NMR shielding tensors so no spin-rotation constants.
 Leave Link  601 at Fri Apr 16 23:11:06 2021, MaxMem=   104857600 cpu:             106.0 elap:               2.4
 (Enter /s/ls4/users/knvvv/bin/g16sse/l9999.exe)

 Test job not archived.
 1\1\GINC-N157\Stability\RM062X\def2QZVP\C2H6\KNVVV\16-Apr-2021\0\\#P M
 062X/Def2QZVP Integral=UltraFineGrid SCF=NoSymm Stable=(RExt, Opt) IOp
 (1/33=1)\\Database calculations.\\0,1\C,0,-0.7630947601,0.,0.\C,0,0.76
 30947601,0.,0.\H,0,1.1583107886,-0.4436420968,-0.9140954882\H,0,-1.158
 3107886,-1.0133268059,-0.0746399218\H,0,1.1583107886,-0.56981277,0.841
 2542398\H,0,1.1583107886,1.0134538084,0.0728481276\H,0,-1.1583107886,0
 .4420201686,0.9148839623\H,0,-1.1583107886,0.5713050498,-0.8402435113\
 \Version=ES64L-G16RevA.03\State=1-A\HF=-79.814684\RMSD=1.458e-09\Dipol
 e=0.0000014,0.0000002,0.0000006\Quadrupole=-0.3482875,0.1741578,0.1741
 296,0.0000112,-0.0000038,0.\PG=C01 [X(C2H6)]\\@


 ... SUBJECTS WHICH DISCLOSE THEIR FULL POWER, MEANING AND BEAUTY AS SOON
 AS THEY ARE PRESENTED TO THE MIND HAVE VERY LITTLE OF THOSE QUALITIES
 TO DISCLOSE.
                           -- CHARLES DUTTON (1882)
 Job cpu time:       0 days  9 hours 51 minutes  7.3 seconds.
 Elapsed time:       0 days  0 hours 14 minutes 25.6 seconds.
 File lengths (MBytes):  RWF=    160 Int=      0 D2E=      0 Chk=     19 Scr=      1
 Normal termination of Gaussian 16 at Fri Apr 16 23:11:07 2021.
