 Entering Gaussian System, Link 0=/s/ls4/users/knvvv/bin/g16sse/g16
 Input=data/database/M062X--def2-QZVPPD--110_allene_W4-11.gjf
 Output=data/database/M062X--def2-QZVPPD--110_allene_W4-11.log
 Initial command:
 /s/ls4/users/knvvv/bin/g16sse/l1.exe "/s/ls4/users/knvvv/bin/scratch/Gau-962.inp" -scrdir="/s/ls4/users/knvvv/bin/scratch/"
 Entering Link 1 = /s/ls4/users/knvvv/bin/g16sse/l1.exe PID=       963.
  
 Copyright (c) 1988,1990,1992,1993,1995,1998,2003,2009,2016,
            Gaussian, Inc.  All Rights Reserved.
  
 This is part of the Gaussian(R) 16 program.  It is based on
 the Gaussian(R) 09 system (copyright 2009, Gaussian, Inc.),
 the Gaussian(R) 03 system (copyright 2003, Gaussian, Inc.),
 the Gaussian(R) 98 system (copyright 1998, Gaussian, Inc.),
 the Gaussian(R) 94 system (copyright 1995, Gaussian, Inc.),
 the Gaussian 92(TM) system (copyright 1992, Gaussian, Inc.),
 the Gaussian 90(TM) system (copyright 1990, Gaussian, Inc.),
 the Gaussian 88(TM) system (copyright 1988, Gaussian, Inc.),
 the Gaussian 86(TM) system (copyright 1986, Carnegie Mellon
 University), and the Gaussian 82(TM) system (copyright 1983,
 Carnegie Mellon University). Gaussian is a federally registered
 trademark of Gaussian, Inc.
  
 This software contains proprietary and confidential information,
 including trade secrets, belonging to Gaussian, Inc.
  
 This software is provided under written license and may be
 used, copied, transmitted, or stored only in accord with that
 written license.
  
 The following legend is applicable only to US Government
 contracts under FAR:
  
                    RESTRICTED RIGHTS LEGEND
  
 Use, reproduction and disclosure by the US Government is
 subject to restrictions as set forth in subparagraphs (a)
 and (c) of the Commercial Computer Software - Restricted
 Rights clause in FAR 52.227-19.
  
 Gaussian, Inc.
 340 Quinnipiac St., Bldg. 40, Wallingford CT 06492
  
  
 ---------------------------------------------------------------
 Warning -- This program may not be used in any manner that
 competes with the business of Gaussian, Inc. or will provide
 assistance to any competitor of Gaussian, Inc.  The licensee
 of this program is prohibited from giving any competitor of
 Gaussian, Inc. access to this program.  By using this program,
 the user acknowledges that Gaussian, Inc. is engaged in the
 business of creating and licensing software in the field of
 computational chemistry and represents and warrants to the
 licensee that it is not a competitor of Gaussian, Inc. and that
 it will not use this program in any manner prohibited above.
 ---------------------------------------------------------------
  

 Cite this work as:
 Gaussian 16, Revision A.03,
 M. J. Frisch, G. W. Trucks, H. B. Schlegel, G. E. Scuseria, 
 M. A. Robb, J. R. Cheeseman, G. Scalmani, V. Barone, 
 G. A. Petersson, H. Nakatsuji, X. Li, M. Caricato, A. V. Marenich, 
 J. Bloino, B. G. Janesko, R. Gomperts, B. Mennucci, H. P. Hratchian, 
 J. V. Ortiz, A. F. Izmaylov, J. L. Sonnenberg, D. Williams-Young, 
 F. Ding, F. Lipparini, F. Egidi, J. Goings, B. Peng, A. Petrone, 
 T. Henderson, D. Ranasinghe, V. G. Zakrzewski, J. Gao, N. Rega, 
 G. Zheng, W. Liang, M. Hada, M. Ehara, K. Toyota, R. Fukuda, 
 J. Hasegawa, M. Ishida, T. Nakajima, Y. Honda, O. Kitao, H. Nakai, 
 T. Vreven, K. Throssell, J. A. Montgomery, Jr., J. E. Peralta, 
 F. Ogliaro, M. J. Bearpark, J. J. Heyd, E. N. Brothers, K. N. Kudin, 
 V. N. Staroverov, T. A. Keith, R. Kobayashi, J. Normand, 
 K. Raghavachari, A. P. Rendell, J. C. Burant, S. S. Iyengar, 
 J. Tomasi, M. Cossi, J. M. Millam, M. Klene, C. Adamo, R. Cammi, 
 J. W. Ochterski, R. L. Martin, K. Morokuma, O. Farkas, 
 J. B. Foresman, and D. J. Fox, Gaussian, Inc., Wallingford CT, 2016.
 
 ******************************************
 Gaussian 16:  ES64L-G16RevA.03 25-Dec-2016
                17-Apr-2021 
 ******************************************
 %RWF=temp0_44759,70GB
 %nprocshared=48
 Will use up to   48 processors via shared memory.
 Default route: MaxDisk=80GB
 ----------------------------------------------------------------------
 #P M062X/GEN Integral=UltraFineGrid SCF=NoSymm Stable=(RExt, Opt) IOp(
 1/33=1)
 ----------------------------------------------------------------------
 1/33=1,38=1,172=1/1;
 2/12=2,17=6,18=5,40=1/2;
 3/5=7,11=2,25=1,30=1,74=-55,75=-5/1,2,3;
 4/9=2/1;
 5/5=2,38=5/2;
 6/7=2,8=2,9=2,10=2,28=1/1;
 8/6=1,10=90,11=11/1;
 9/8=-3,42=1,46=1/14;
 5/5=2,8=3,17=40,38=5/8(-2);
 6/7=2,8=2,9=2,10=2,28=1/1;
 99/5=1,9=1/99;
 Leave Link    1 at Sat Apr 17 11:00:40 2021, MaxMem=           0 cpu:              10.9 elap:               0.3
 (Enter /s/ls4/users/knvvv/bin/g16sse/l101.exe)
 ONIOM data not found on unit 2.
 ----------------------
 Database calculations.
 ----------------------
 TstMul:  ICh=     0
 TstMul:  Mul=     1
 TstMul:  ICh=     0
 TstMul:  Mul=     1
 Symbolic Z-matrix:
 Charge =  0 Multiplicity = 1
 C                     0.        0.        0. 
 C                     0.        0.        1.31052 
 C                     0.        0.       -1.31052 
 H                    -0.92902   0.       -1.86606 
 H                     0.92902   0.       -1.86606 
 H                     0.        0.92902   1.86606 
 H                     0.       -0.92902   1.86606 
 
 RdStrC is calling ZToCFu for IStruc=1 NZ=     7.
 PrtBox:  NBox=     1 Levels=  1 BoxLen=    8.00 SMaxX=        7.05
          Shift=            1.755594            1.755594            3.526342
 Box      1 Number                   0 centers from      1 to      7:
 After GenITR:
 ITRead=  0  0  0  0  0  0  0
 MicOpt= -1 -1 -1 -1 -1 -1 -1
 ITRead=  0  0  0  0  0  0  0
 MicOpt= -1 -1 -1 -1 -1 -1 -1
 NAtoms=      7 NQM=        7 NQMF=       0 NMMI=      0 NMMIF=      0
                NMic=       0 NMicF=      0.
                    Isotopes and Nuclear Properties:
 (Nuclear quadrupole moments (NQMom) in fm**2, nuclear magnetic moments (NMagM)
  in nuclear magnetons)

  Atom         1           2           3           4           5           6           7
 IAtWgt=          12          12          12           1           1           1           1
 AtmWgt=  12.0000000  12.0000000  12.0000000   1.0078250   1.0078250   1.0078250   1.0078250
 NucSpn=           0           0           0           1           1           1           1
 AtZEff=  -0.0000000  -0.0000000  -0.0000000  -0.0000000  -0.0000000  -0.0000000  -0.0000000
 NQMom=    0.0000000   0.0000000   0.0000000   0.0000000   0.0000000   0.0000000   0.0000000
 NMagM=    0.0000000   0.0000000   0.0000000   2.7928460   2.7928460   2.7928460   2.7928460
 AtZNuc=   6.0000000   6.0000000   6.0000000   1.0000000   1.0000000   1.0000000   1.0000000
 No MM parameters found.
 Leave Link  101 at Sat Apr 17 11:00:40 2021, MaxMem=   104857600 cpu:               9.2 elap:               0.2
 (Enter /s/ls4/users/knvvv/bin/g16sse/l202.exe)
                          Input orientation:                          
 ---------------------------------------------------------------------
 Center     Atomic      Atomic             Coordinates (Angstroms)
 Number     Number       Type             X           Y           Z
 ---------------------------------------------------------------------
      1          6           0        0.000000    0.000000    0.000000
      2          6           0        0.000000    0.000000    1.310515
      3          6           0        0.000000    0.000000   -1.310515
      4          1           0       -0.929020    0.000000   -1.866060
      5          1           0        0.929020    0.000000   -1.866060
      6          1           0        0.000000    0.929020    1.866060
      7          1           0        0.000000   -0.929020    1.866060
 ---------------------------------------------------------------------
                    Distance matrix (angstroms):
                    1          2          3          4          5
     1  C    0.000000
     2  C    1.310515   0.000000
     3  C    1.310515   2.621030   0.000000
     4  H    2.084528   3.309638   1.082455   0.000000
     5  H    2.084528   3.309638   1.082455   1.858041   0.000000
     6  H    2.084528   1.082455   3.309638   3.956624   3.956624
     7  H    2.084528   1.082455   3.309638   3.956624   3.956624
                    6          7
     6  H    0.000000
     7  H    1.858041   0.000000
 Stoichiometry    C3H4
 Framework group  D2D[O(C),C2(C.C),2SGD(H2)]
 Deg. of freedom     3
 Full point group                 D2D     NOp   8
 Largest Abelian subgroup         C2V     NOp   4
 Largest concise Abelian subgroup C2V     NOp   4
                         Standard orientation:                         
 ---------------------------------------------------------------------
 Center     Atomic      Atomic             Coordinates (Angstroms)
 Number     Number       Type             X           Y           Z
 ---------------------------------------------------------------------
      1          6           0        0.000000    0.000000    0.000000
      2          6           0        0.000000    0.000000    1.310515
      3          6           0        0.000000    0.000000   -1.310515
      4          1           0       -0.929020    0.000000   -1.866060
      5          1           0        0.929020    0.000000   -1.866060
      6          1           0       -0.000000    0.929020    1.866060
      7          1           0       -0.000000   -0.929020    1.866060
 ---------------------------------------------------------------------
 Rotational constants (GHZ):         145.2518099           8.8668941           8.8668941
 Leave Link  202 at Sat Apr 17 11:00:41 2021, MaxMem=   104857600 cpu:              13.7 elap:               0.3
 (Enter /s/ls4/users/knvvv/bin/g16sse/l301.exe)
 General basis read from cards:  (5D, 7F)
 Centers:       4      5      6      7
 S 4 1.00
     Exponent=  1.9069169000D+02 Coefficients=  7.0815167000D-04
     Exponent=  2.8605532000D+01 Coefficients=  5.4678827000D-03
     Exponent=  6.5095943000D+00 Coefficients=  2.7966605000D-02
     Exponent=  1.8412455000D+00 Coefficients=  1.0764538000D-01
 S 1 1.00
     Exponent=  5.9853725000D-01 Coefficients=  1.0000000000D+00
 S 1 1.00
     Exponent=  2.1397624000D-01 Coefficients=  1.0000000000D+00
 S 1 1.00
     Exponent=  8.0316286000D-02 Coefficients=  1.0000000000D+00
 P 1 1.00
     Exponent=  2.2920000000D+00 Coefficients=  1.0000000000D+00
 P 1 1.00
     Exponent=  8.3800000000D-01 Coefficients=  1.0000000000D+00
 P 1 1.00
     Exponent=  2.9200000000D-01 Coefficients=  1.0000000000D+00
 P 1 1.00
     Exponent=  8.4063199228D-02 Coefficients=  1.0000000000D+00
 D 1 1.00
     Exponent=  2.0620000000D+00 Coefficients=  1.0000000000D+00
 D 1 1.00
     Exponent=  6.6200000000D-01 Coefficients=  1.0000000000D+00
 F 1 1.00
     Exponent=  1.3970000000D+00 Coefficients=  1.0000000000D+00
 ****
 Centers:       1      2      3
 S 8 1.00
     Exponent=  6.7025071029D+04 Coefficients=  3.8736308501D-05
     Exponent=  1.0039986538D+04 Coefficients=  3.0107917575D-04
     Exponent=  2.2849316911D+03 Coefficients=  1.5787918095D-03
     Exponent=  6.4714122130D+02 Coefficients=  6.6087087195D-03
     Exponent=  2.1109472335D+02 Coefficients=  2.3367123250D-02
     Exponent=  7.6177643862D+01 Coefficients=  7.0420716898D-02
     Exponent=  2.9633839163D+01 Coefficients=  1.7360344953D-01
     Exponent=  1.2187785081D+01 Coefficients=  3.2292305648D-01
 S 2 1.00
     Exponent=  5.3026006299D+01 Coefficients=  7.4897404492D-02
     Exponent=  1.5258502776D+01 Coefficients=  7.6136220983D-01
 S 1 1.00
     Exponent=  5.2403957464D+00 Coefficients=  1.0000000000D+00
 S 1 1.00
     Exponent=  2.2905022379D+00 Coefficients=  1.0000000000D+00
 S 1 1.00
     Exponent=  6.9673283006D-01 Coefficients=  1.0000000000D+00
 S 1 1.00
     Exponent=  2.7599337363D-01 Coefficients=  1.0000000000D+00
 S 1 1.00
     Exponent=  1.0739884389D-01 Coefficients=  1.0000000000D+00
 S 1 1.00
     Exponent=  4.4981404899D-02 Coefficients=  1.0000000000D+00
 P 5 1.00
     Exponent=  1.0512555082D+02 Coefficients=  8.4647553844D-04
     Exponent=  2.4884461066D+01 Coefficients=  6.6274038534D-03
     Exponent=  7.8637230826D+00 Coefficients=  3.0120390419D-02
     Exponent=  2.8407001835D+00 Coefficients=  9.9951435476D-02
     Exponent=  1.1227137335D+00 Coefficients=  2.3826299282D-01
 P 1 1.00
     Exponent=  4.6050725555D-01 Coefficients=  1.0000000000D+00
 P 1 1.00
     Exponent=  1.8937530913D-01 Coefficients=  1.0000000000D+00
 P 1 1.00
     Exponent=  7.5983791611D-02 Coefficients=  1.0000000000D+00
 D 1 1.00
     Exponent=  1.8480000000D+00 Coefficients=  1.0000000000D+00
 D 1 1.00
     Exponent=  6.4900000000D-01 Coefficients=  1.0000000000D+00
 D 1 1.00
     Exponent=  2.2800000000D-01 Coefficients=  1.0000000000D+00
 D 1 1.00
     Exponent=  7.6889830417D-02 Coefficients=  1.0000000000D+00
 F 1 1.00
     Exponent=  1.4190000000D+00 Coefficients=  1.0000000000D+00
 F 1 1.00
     Exponent=  4.8500000000D-01 Coefficients=  1.0000000000D+00
 G 1 1.00
     Exponent=  1.0110000000D+00 Coefficients=  1.0000000000D+00
 ****
 Ernie: Thresh=  0.10000D-02 Tol=  0.10000D-05 Strict=F.
 There are   160 symmetry adapted cartesian basis functions of A1  symmetry.
 There are    51 symmetry adapted cartesian basis functions of A2  symmetry.
 There are    89 symmetry adapted cartesian basis functions of B1  symmetry.
 There are    89 symmetry adapted cartesian basis functions of B2  symmetry.
 There are   125 symmetry adapted basis functions of A1  symmetry.
 There are    46 symmetry adapted basis functions of A2  symmetry.
 There are    75 symmetry adapted basis functions of B1  symmetry.
 There are    75 symmetry adapted basis functions of B2  symmetry.
   321 basis functions,   461 primitive gaussians,   389 cartesian basis functions
    11 alpha electrons       11 beta electrons
       nuclear repulsion energy        59.1087870574 Hartrees.
 IExCor= 4336 DFT=T Ex+Corr=M062X ExCW=0 ScaHFX=  0.540000
 ScaDFX=  1.000000  1.000000  1.000000  1.000000 ScalE2=  1.000000  1.000000
 IRadAn=      5 IRanWt=     -1 IRanGd=            0 ICorTp=0 IEmpDi=  4
 NAtoms=    7 NActive=    7 NUniq=    3 SFac= 4.00D+00 NAtFMM=   60 NAOKFM=F Big=F
 Integral buffers will be    131072 words long.
 Raffenetti 2 integral format.
 Two-electron integral symmetry is turned on.
 Leave Link  301 at Sat Apr 17 11:00:41 2021, MaxMem=   104857600 cpu:               7.6 elap:               0.2
 (Enter /s/ls4/users/knvvv/bin/g16sse/l302.exe)
 NPDir=0 NMtPBC=     1 NCelOv=     1 NCel=       1 NClECP=     1 NCelD=      1
         NCelK=      1 NCelE2=     1 NClLst=     1 CellRange=     0.0.
 One-electron integrals computed using PRISM.
 One-electron integral symmetry used in STVInt
 PrsmSu:  requested number of processors reduced to:   4 ShMem   1 Linda.
 PrsmSu:  requested number of processors reduced to:  21 ShMem   1 Linda.
 NBasis=   321 RedAO= T EigKep=  5.62D-06  NBF=   125    46    75    75
 NBsUse=   320 1.00D-06 EigRej=  1.76D-07 NBFU=   124    46    75    75
 Precomputing XC quadrature grid using
 IXCGrd= 4 IRadAn=           5 IRanWt=          -1 IRanGd=           0 AccXCQ= 0.00D+00.
 Generated NRdTot=       0 NPtTot=           0 NUsed=           0 NTot=          32
 NSgBfM=   389   389   389   389   389 MxSgAt=     7 MxSgA2=     7.
 Leave Link  302 at Sat Apr 17 11:01:01 2021, MaxMem=   104857600 cpu:             961.3 elap:              20.6
 (Enter /s/ls4/users/knvvv/bin/g16sse/l303.exe)
 DipDrv:  MaxL=1.
 Leave Link  303 at Sat Apr 17 11:01:03 2021, MaxMem=   104857600 cpu:              76.1 elap:               1.7
 (Enter /s/ls4/users/knvvv/bin/g16sse/l401.exe)
 SCF N**3 symmetry information disabled.
 ExpMin= 4.50D-02 ExpMax= 6.70D+04 ExpMxC= 6.47D+02 IAcc=3 IRadAn=         5 AccDes= 0.00D+00
 Harris functional with IExCor= 1009 and IRadAn=       5 diagonalized for initial guess.
 HarFok:  IExCor= 1009 AccDes= 0.00D+00 IRadAn=         5 IDoV= 1 UseB2=F ITyADJ=14
 ICtDFT=  3500011 ScaDFX=  1.000000  1.000000  1.000000  1.000000
 FoFCou: FMM=F IPFlag=           0 FMFlag=      100000 FMFlg1=           0
         NFxFlg=           0 DoJE=T BraDBF=F KetDBF=T FulRan=T
         wScrn=  0.000000 ICntrl=       500 IOpCl=  0 I1Cent=   200000004 NGrid=           0
         NMat0=    1 NMatS0=      1 NMatT0=    0 NMatD0=    1 NMtDS0=    0 NMtDT0=    0
 Petite list used in FoFCou.
 CoulSu:  requested number of processors reduced to:  20 ShMem   1 Linda.
 CoulSu:  requested number of processors reduced to:  20 ShMem   1 Linda.
 CoulSu:  requested number of processors reduced to:  21 ShMem   1 Linda.
 CoulSu:  requested number of processors reduced to:  21 ShMem   1 Linda.
 Harris En= -116.641477958664    
 JPrj=0 DoOrth=F DoCkMO=F.
 Initial guess orbital symmetries:
       Occupied  (A1) (B2) (A1) (A1) (B2) (A1) (B2) (E) (E) (E)
                 (E)
       Virtual   (E) (E) (A1) (B2) (A1) (E) (E) (B2) (E) (E) (A1)
                 (B1) (A1) (B2) (A2) (B2) (A1) (E) (E) (A1) (E)
                 (E) (E) (E) (B2) (E) (E) (B1) (B2) (A1) (A1) (E)
                 (E) (B2) (E) (E) (A1) (A2) (B2) (A1) (E) (E) (E)
                 (E) (B2) (B1) (B1) (A1) (B2) (E) (E) (A2) (A1)
                 (B2) (E) (E) (B2) (A1) (B1) (E) (E) (E) (E) (A1)
                 (A1) (E) (E) (B2) (E) (E) (E) (E) (B2) (A2) (B2)
                 (A1) (B2) (E) (E) (B2) (A1) (B1) (E) (E) (A1)
                 (E) (E) (A1) (B2) (E) (E) (A1) (B2) (E) (E) (B1)
                 (B2) (A2) (A2) (E) (E) (A1) (E) (E) (B1) (A1)
                 (A1) (E) (E) (E) (E) (B2) (B1) (A2) (B2) (E) (E)
                 (B2) (A1) (E) (E) (B2) (E) (E) (B1) (E) (E) (B2)
                 (A2) (A1) (E) (E) (A1) (E) (E) (A1) (B2) (B2)
                 (E) (E) (E) (E) (B1) (A1) (A1) (E) (E) (B2) (A2)
                 (A1) (E) (E) (A1) (B2) (B1) (E) (E) (A2) (B2)
                 (E) (E) (A1) (B2) (A1) (E) (E) (E) (E) (B2) (E)
                 (E) (A1) (A2) (A1) (E) (E) (B2) (B1) (B2) (E)
                 (E) (A1) (A2) (B1) (B2) (E) (E) (A2) (B1) (E)
                 (E) (A1) (A2) (E) (E) (B2) (A1) (E) (E) (B2) (E)
                 (E) (E) (E) (A1) (B1) (E) (E) (A2) (E) (E) (B1)
                 (A1) (B2) (E) (E) (B2) (E) (E) (A1) (B2) (A2)
                 (A1) (E) (E) (B1) (B2) (A2) (E) (E) (A1) (A1)
                 (E) (E) (B2) (A1) (B1) (E) (E) (B2) (E) (E) (A1)
                 (B2) (E) (E) (A2) (B1) (A1) (B2) (E) (E) (B2)
                 (B1) (A1) (A2) (A1) (E) (E) (E) (E) (B2) (A1)
                 (E) (E) (A1) (B2) (E) (E) (B2) (A2) (B1) (A2)
                 (E) (E) (E) (E) (B1) (A1) (B2) (E) (E) (A1) (E)
                 (E) (B2) (A1) (A2) (B1) (E) (E) (E) (E) (A1) (B2)
                 (B2) (E) (E) (A1) (E) (E) (B2) (A1) (A1) (B2)
                 (A1) (A1) (B2) (A1)
 The electronic state of the initial guess is 1-A1.
 Leave Link  401 at Sat Apr 17 11:01:19 2021, MaxMem=   104857600 cpu:             718.1 elap:              15.5
 (Enter /s/ls4/users/knvvv/bin/g16sse/l502.exe)
 Integral symmetry usage will be decided dynamically.
 Closed shell SCF:
 Using DIIS extrapolation, IDIIS=  1040.
 NGot=   104857600 LenX=   104530318 LenY=   104378556
 Requested convergence on RMS density matrix=1.00D-08 within 128 cycles.
 Requested convergence on MAX density matrix=1.00D-06.
 Requested convergence on             energy=1.00D-06.
 No special actions if energy rises.
 Fock matrices will be formed incrementally for  20 cycles.

 Cycle   1  Pass 1  IDiag  1:
 FoFJK:  IHMeth= 1 ICntrl=       0 DoSepK=F KAlg= 0 I1Cent=           0 FoldK=F
 IRaf= 970000000 NMat=       1 IRICut=       1 DoRegI=T DoRafI=F ISym2E= 1 IDoP0=0 IntGTp=1.
 FoFCou: FMM=F IPFlag=           0 FMFlag=      100000 FMFlg1=           0
         NFxFlg=           0 DoJE=F BraDBF=F KetDBF=F FulRan=T
         wScrn=  0.000000 ICntrl=         0 IOpCl=  0 I1Cent=           0 NGrid=           0
         NMat0=    1 NMatS0=      1 NMatT0=    0 NMatD0=    1 NMtDS0=    0 NMtDT0=    0
 Petite list used in FoFCou.
 CoulSu:  requested number of processors reduced to:  21 ShMem   1 Linda.
 E= -116.532631618549    
 DIIS: error= 3.03D-02 at cycle   1 NSaved=   1.
 NSaved= 1 IEnMin= 1 EnMin= -116.532631618549     IErMin= 1 ErrMin= 3.03D-02
 ErrMax= 3.03D-02  0.00D+00 EMaxC= 1.00D-01 BMatC= 1.72D-01 BMatP= 1.72D-01
 IDIUse=3 WtCom= 6.97D-01 WtEn= 3.03D-01
 Coeff-Com:  0.100D+01
 Coeff-En:   0.100D+01
 Coeff:      0.100D+01
 Gap=     0.371 Goal=   None    Shift=    0.000
 GapD=    0.371 DampG=1.000 DampE=0.500 DampFc=0.5000 IDamp=-1.
 Damping current iteration by 5.00D-01
 RMSDP=8.00D-03 MaxDP=3.79D-01              OVMax= 1.52D-01

 Cycle   2  Pass 1  IDiag  1:
 RMSU=  3.34D-03    CP:  1.29D+00
 CoulSu:  requested number of processors reduced to:  21 ShMem   1 Linda.
 E= -116.597581852685     Delta-E=       -0.064950234137 Rises=F Damp=T
 DIIS: error= 1.54D-02 at cycle   2 NSaved=   2.
 NSaved= 2 IEnMin= 2 EnMin= -116.597581852685     IErMin= 2 ErrMin= 1.54D-02
 ErrMax= 1.54D-02  0.00D+00 EMaxC= 1.00D-01 BMatC= 1.78D-02 BMatP= 1.72D-01
 IDIUse=3 WtCom= 8.46D-01 WtEn= 1.54D-01
 Coeff-Com: -0.275D+00 0.127D+01
 Coeff-En:   0.000D+00 0.100D+01
 Coeff:     -0.232D+00 0.123D+01
 Gap=     0.345 Goal=   None    Shift=    0.000
 RMSDP=6.91D-03 MaxDP=4.11D-01 DE=-6.50D-02 OVMax= 6.94D-02

 Cycle   3  Pass 1  IDiag  1:
 RMSU=  2.56D-03    CP:  6.30D-01 -2.09D-01
 CoulSu:  requested number of processors reduced to:  21 ShMem   1 Linda.
 E= -116.652503946225     Delta-E=       -0.054922093540 Rises=F Damp=F
 DIIS: error= 1.55D-03 at cycle   3 NSaved=   3.
 NSaved= 3 IEnMin= 3 EnMin= -116.652503946225     IErMin= 3 ErrMin= 1.55D-03
 ErrMax= 1.55D-03  0.00D+00 EMaxC= 1.00D-01 BMatC= 3.69D-04 BMatP= 1.78D-02
 IDIUse=3 WtCom= 9.84D-01 WtEn= 1.55D-02
 Coeff-Com: -0.675D-01 0.158D+00 0.910D+00
 Coeff-En:   0.000D+00 0.000D+00 0.100D+01
 Coeff:     -0.665D-01 0.155D+00 0.911D+00
 Gap=     0.339 Goal=   None    Shift=    0.000
 RMSDP=4.88D-04 MaxDP=2.65D-02 DE=-5.49D-02 OVMax= 6.04D-03

 Cycle   4  Pass 1  IDiag  1:
 RMSU=  1.71D-04    CP:  6.69D-01 -1.12D-01  9.47D-01
 CoulSu:  requested number of processors reduced to:  21 ShMem   1 Linda.
 E= -116.652892305265     Delta-E=       -0.000388359040 Rises=F Damp=F
 DIIS: error= 1.97D-04 at cycle   4 NSaved=   4.
 NSaved= 4 IEnMin= 4 EnMin= -116.652892305265     IErMin= 4 ErrMin= 1.97D-04
 ErrMax= 1.97D-04  0.00D+00 EMaxC= 1.00D-01 BMatC= 4.12D-06 BMatP= 3.69D-04
 IDIUse=3 WtCom= 9.98D-01 WtEn= 1.97D-03
 Coeff-Com:  0.697D-02-0.138D-01-0.422D-02 0.101D+01
 Coeff-En:   0.000D+00 0.000D+00 0.000D+00 0.100D+01
 Coeff:      0.695D-02-0.138D-01-0.421D-02 0.101D+01
 Gap=     0.340 Goal=   None    Shift=    0.000
 RMSDP=5.61D-05 MaxDP=2.70D-03 DE=-3.88D-04 OVMax= 6.07D-04

 Cycle   5  Pass 1  IDiag  1:
 RMSU=  1.59D-05    CP:  6.73D-01 -1.04D-01  9.37D-01  1.15D+00
 CoulSu:  requested number of processors reduced to:  21 ShMem   1 Linda.
 E= -116.652896382542     Delta-E=       -0.000004077277 Rises=F Damp=F
 DIIS: error= 3.12D-05 at cycle   5 NSaved=   5.
 NSaved= 5 IEnMin= 5 EnMin= -116.652896382542     IErMin= 5 ErrMin= 3.12D-05
 ErrMax= 3.12D-05  0.00D+00 EMaxC= 1.00D-01 BMatC= 5.80D-08 BMatP= 4.12D-06
 IDIUse=1 WtCom= 1.00D+00 WtEn= 0.00D+00
 Coeff-Com:  0.166D-02-0.387D-02-0.129D-01 0.406D-01 0.974D+00
 Coeff:      0.166D-02-0.387D-02-0.129D-01 0.406D-01 0.974D+00
 Gap=     0.340 Goal=   None    Shift=    0.000
 RMSDP=2.52D-06 MaxDP=1.14D-04 DE=-4.08D-06 OVMax= 1.54D-04

 Cycle   6  Pass 1  IDiag  1:
 RMSU=  2.07D-06    CP:  6.73D-01 -1.04D-01  9.37D-01  1.15D+00  1.01D+00
 CoulSu:  requested number of processors reduced to:  21 ShMem   1 Linda.
 E= -116.652896500348     Delta-E=       -0.000000117807 Rises=F Damp=F
 DIIS: error= 8.25D-06 at cycle   6 NSaved=   6.
 NSaved= 6 IEnMin= 6 EnMin= -116.652896500348     IErMin= 6 ErrMin= 8.25D-06
 ErrMax= 8.25D-06  0.00D+00 EMaxC= 1.00D-01 BMatC= 2.68D-09 BMatP= 5.80D-08
 IDIUse=1 WtCom= 1.00D+00 WtEn= 0.00D+00
 Coeff-Com: -0.290D-03 0.562D-03 0.171D-02-0.232D-01-0.508D-01 0.107D+01
 Coeff:     -0.290D-03 0.562D-03 0.171D-02-0.232D-01-0.508D-01 0.107D+01
 Gap=     0.340 Goal=   None    Shift=    0.000
 DSYEVD-2 returned Info=       52001 IAlg= 4 N=   320 NDim=   320 NE2=      326181 trying  DSYEV.
 RMSDP=2.19D-06 MaxDP=1.22D-04 DE=-1.18D-07 OVMax= 6.67D-05

 Cycle   7  Pass 1  IDiag  1:
 RMSU=  5.82D-07    CP:  6.73D-01 -1.04D-01  9.37D-01  1.14D+00  1.01D+00
                    CP:  1.12D+00
 CoulSu:  requested number of processors reduced to:  21 ShMem   1 Linda.
 E= -116.652896506257     Delta-E=       -0.000000005909 Rises=F Damp=F
 DIIS: error= 4.58D-06 at cycle   7 NSaved=   7.
 NSaved= 7 IEnMin= 7 EnMin= -116.652896506257     IErMin= 7 ErrMin= 4.58D-06
 ErrMax= 4.58D-06  0.00D+00 EMaxC= 1.00D-01 BMatC= 2.68D-09 BMatP= 2.68D-09
 IDIUse=1 WtCom= 1.00D+00 WtEn= 0.00D+00
 Coeff-Com: -0.264D-03 0.542D-03 0.171D-02-0.185D-01-0.830D-01 0.610D+00
 Coeff-Com:  0.489D+00
 Coeff:     -0.264D-03 0.542D-03 0.171D-02-0.185D-01-0.830D-01 0.610D+00
 Coeff:      0.489D+00
 Gap=     0.340 Goal=   None    Shift=    0.000
 DSYEVD-2 returned Info=       52001 IAlg= 4 N=   320 NDim=   320 NE2=      326181 trying  DSYEV.
 RMSDP=2.24D-07 MaxDP=9.59D-06 DE=-5.91D-09 OVMax= 1.30D-05

 Cycle   8  Pass 1  IDiag  1:
 RMSU=  1.23D-07    CP:  6.73D-01 -1.04D-01  9.37D-01  1.14D+00  1.01D+00
                    CP:  1.13D+00  1.09D+00
 CoulSu:  requested number of processors reduced to:  21 ShMem   1 Linda.
 E= -116.652896508619     Delta-E=       -0.000000002362 Rises=F Damp=F
 DIIS: error= 7.20D-07 at cycle   8 NSaved=   8.
 NSaved= 8 IEnMin= 8 EnMin= -116.652896508619     IErMin= 8 ErrMin= 7.20D-07
 ErrMax= 7.20D-07  0.00D+00 EMaxC= 1.00D-01 BMatC= 3.13D-11 BMatP= 2.68D-09
 IDIUse=1 WtCom= 1.00D+00 WtEn= 0.00D+00
 Coeff-Com: -0.560D-05 0.220D-04 0.202D-04-0.156D-02-0.702D-02-0.556D-02
 Coeff-Com:  0.134D-01 0.100D+01
 Coeff:     -0.560D-05 0.220D-04 0.202D-04-0.156D-02-0.702D-02-0.556D-02
 Coeff:      0.134D-01 0.100D+01
 Gap=     0.340 Goal=   None    Shift=    0.000
 RMSDP=1.08D-07 MaxDP=8.37D-06 DE=-2.36D-09 OVMax= 6.22D-06

 Cycle   9  Pass 1  IDiag  1:
 RMSU=  5.30D-08    CP:  6.73D-01 -1.04D-01  9.37D-01  1.15D+00  1.02D+00
                    CP:  1.12D+00  1.19D+00  1.09D+00
 CoulSu:  requested number of processors reduced to:  21 ShMem   1 Linda.
 E= -116.652896508687     Delta-E=       -0.000000000068 Rises=F Damp=F
 DIIS: error= 2.25D-07 at cycle   9 NSaved=   9.
 NSaved= 9 IEnMin= 9 EnMin= -116.652896508687     IErMin= 9 ErrMin= 2.25D-07
 ErrMax= 2.25D-07  0.00D+00 EMaxC= 1.00D-01 BMatC= 8.73D-12 BMatP= 3.13D-11
 IDIUse=1 WtCom= 1.00D+00 WtEn= 0.00D+00
 Coeff-Com:  0.720D-05-0.155D-04-0.177D-04 0.659D-03 0.373D-02-0.142D-01
 Coeff-Com: -0.741D-01-0.108D+00 0.119D+01
 Coeff:      0.720D-05-0.155D-04-0.177D-04 0.659D-03 0.373D-02-0.142D-01
 Coeff:     -0.741D-01-0.108D+00 0.119D+01
 Gap=     0.340 Goal=   None    Shift=    0.000
 RMSDP=2.21D-08 MaxDP=1.33D-06 DE=-6.83D-11 OVMax= 9.55D-07

 Cycle  10  Pass 1  IDiag  1:
 RMSU=  8.34D-09    CP:  6.73D-01 -1.04D-01  9.37D-01  1.15D+00  1.01D+00
                    CP:  1.12D+00  1.20D+00  1.16D+00  1.27D+00
 CoulSu:  requested number of processors reduced to:  21 ShMem   1 Linda.
 E= -116.652896508693     Delta-E=       -0.000000000006 Rises=F Damp=F
 DIIS: error= 1.49D-08 at cycle  10 NSaved=  10.
 NSaved=10 IEnMin=10 EnMin= -116.652896508693     IErMin=10 ErrMin= 1.49D-08
 ErrMax= 1.49D-08  0.00D+00 EMaxC= 1.00D-01 BMatC= 1.87D-14 BMatP= 8.73D-12
 IDIUse=1 WtCom= 1.00D+00 WtEn= 0.00D+00
 Coeff-Com: -0.610D-07-0.124D-06 0.186D-06 0.819D-05-0.314D-03 0.101D-02
 Coeff-Com:  0.623D-02 0.781D-02-0.140D+00 0.113D+01
 Coeff:     -0.610D-07-0.124D-06 0.186D-06 0.819D-05-0.314D-03 0.101D-02
 Coeff:      0.623D-02 0.781D-02-0.140D+00 0.113D+01
 Gap=     0.340 Goal=   None    Shift=    0.000
 RMSDP=4.55D-09 MaxDP=2.18D-07 DE=-5.63D-12 OVMax= 5.52D-08

 SCF Done:  E(RM062X) =  -116.652896509     A.U. after   10 cycles
            NFock= 10  Conv=0.45D-08     -V/T= 2.0050
 KE= 1.160725497061D+02 PE=-3.882676730331D+02 EE= 9.643343976095D+01
 Leave Link  502 at Sat Apr 17 11:06:32 2021, MaxMem=   104857600 cpu:           14467.3 elap:             313.5
 (Enter /s/ls4/users/knvvv/bin/g16sse/l601.exe)
 Copying SCF densities to generalized density rwf, IOpCl= 0 IROHF=0.

 **********************************************************************

            Population analysis using the SCF density.

 **********************************************************************

 Orbital symmetries:
       Occupied  (A1) (B2) (A1) (A1) (B2) (A1) (B2) (E) (E) (E)
                 (E)
       Virtual   (A1) (B2) (E) (E) (A1) (E) (E) (B2) (E) (E) (A1)
                 (B1) (B2) (A1) (A2) (E) (E) (B2) (A1) (E) (E)
                 (A1) (B2) (E) (E) (B1) (E) (E) (B2) (A1) (A1)
                 (E) (E) (A2) (E) (E) (B2) (A1) (B2) (A1) (B1)
                 (E) (E) (B2) (E) (E) (A1) (B2) (B1) (E) (E) (A1)
                 (A2) (B2) (B2) (E) (E) (A1) (B1) (E) (E) (E) (E)
                 (A1) (A1) (E) (E) (B2) (E) (E) (E) (E) (A2) (B2)
                 (B2) (A1) (B2) (E) (E) (A1) (B2) (B1) (E) (E)
                 (A1) (E) (E) (B2) (A1) (E) (E) (A1) (B2) (E) (E)
                 (B1) (B2) (A2) (A2) (A1) (E) (E) (B1) (E) (E)
                 (A1) (A1) (E) (E) (B1) (E) (E) (A2) (B2) (B2)
                 (E) (E) (B2) (A1) (E) (E) (B2) (E) (E) (B1) (E)
                 (E) (B2) (A2) (A1) (A1) (E) (E) (A1) (B2) (E)
                 (E) (B2) (E) (E) (B1) (E) (E) (A1) (E) (E) (A1)
                 (B2) (A2) (A1) (B2) (E) (E) (A1) (B1) (E) (E)
                 (A2) (B2) (E) (E) (A1) (B2) (A1) (E) (E) (E) (E)
                 (B2) (E) (E) (A1) (A2) (A1) (E) (E) (B2) (B1)
                 (E) (E) (B2) (A1) (A2) (B1) (E) (E) (A2) (B2)
                 (B1) (E) (E) (A1) (A2) (E) (E) (B2) (A1) (E) (E)
                 (E) (E) (B2) (E) (E) (B1) (A1) (A2) (E) (E) (E)
                 (E) (B1) (B2) (E) (E) (A1) (B2) (E) (E) (A1) (A2)
                 (B2) (A1) (E) (E) (B2) (B1) (A2) (E) (E) (A1)
                 (E) (E) (A1) (B2) (B1) (E) (E) (A1) (B2) (E) (E)
                 (A1) (E) (E) (B1) (B2) (A2) (A1) (E) (E) (B2)
                 (B1) (A2) (B2) (A1) (A1) (E) (E) (E) (E) (B2)
                 (A1) (E) (E) (B2) (E) (E) (A1) (B1) (A2) (B2)
                 (A2) (E) (E) (E) (E) (B1) (A1) (B2) (E) (E) (A1)
                 (E) (E) (B2) (A1) (A2) (B1) (E) (E) (E) (E) (A1)
                 (B2) (B2) (E) (E) (A1) (E) (E) (B2) (A1) (A1)
                 (B2) (A1) (A1) (B2) (A1)
 The electronic state is 1-A1.
 Alpha  occ. eigenvalues --  -10.56920 -10.54821 -10.54815  -0.89207  -0.79613
 Alpha  occ. eigenvalues --   -0.59916  -0.51793  -0.51657  -0.51657  -0.32894
 Alpha  occ. eigenvalues --   -0.32894
 Alpha virt. eigenvalues --    0.01070   0.03059   0.03677   0.03677   0.05969
 Alpha virt. eigenvalues --    0.09187   0.09187   0.11423   0.14026   0.14026
 Alpha virt. eigenvalues --    0.15030   0.15110   0.16256   0.18317   0.19838
 Alpha virt. eigenvalues --    0.20705   0.20705   0.21194   0.22513   0.24497
 Alpha virt. eigenvalues --    0.24497   0.25379   0.26361   0.26595   0.26595
 Alpha virt. eigenvalues --    0.28422   0.29779   0.29779   0.32551   0.33400
 Alpha virt. eigenvalues --    0.34177   0.34615   0.34615   0.37780   0.38508
 Alpha virt. eigenvalues --    0.38508   0.39106   0.39930   0.43054   0.44777
 Alpha virt. eigenvalues --    0.44863   0.45397   0.45397   0.45556   0.48523
 Alpha virt. eigenvalues --    0.48523   0.50822   0.54398   0.55414   0.57530
 Alpha virt. eigenvalues --    0.57530   0.59581   0.63680   0.70202   0.72525
 Alpha virt. eigenvalues --    0.73153   0.73153   0.75108   0.79260   0.80973
 Alpha virt. eigenvalues --    0.80973   0.86358   0.86358   0.86865   0.89667
 Alpha virt. eigenvalues --    0.91093   0.91093   0.93743   0.94085   0.94085
 Alpha virt. eigenvalues --    1.00403   1.00403   1.00483   1.01682   1.06369
 Alpha virt. eigenvalues --    1.07460   1.16337   1.17096   1.17096   1.19408
 Alpha virt. eigenvalues --    1.20651   1.22699   1.27928   1.27928   1.29701
 Alpha virt. eigenvalues --    1.35259   1.35259   1.36802   1.39063   1.59177
 Alpha virt. eigenvalues --    1.59177   1.59237   1.68102   1.72524   1.72524
 Alpha virt. eigenvalues --    1.78320   1.80564   1.86990   1.92141   1.92670
 Alpha virt. eigenvalues --    1.92922   1.92922   1.95829   1.97273   1.97273
 Alpha virt. eigenvalues --    1.98473   2.06866   2.07843   2.07843   2.12613
 Alpha virt. eigenvalues --    2.13173   2.13173   2.13649   2.16523   2.17450
 Alpha virt. eigenvalues --    2.22167   2.22167   2.26622   2.28832   2.37145
 Alpha virt. eigenvalues --    2.37145   2.38356   2.43581   2.43581   2.46732
 Alpha virt. eigenvalues --    2.52283   2.52283   2.53542   2.55294   2.57060
 Alpha virt. eigenvalues --    2.63826   2.64244   2.64244   2.70264   2.70606
 Alpha virt. eigenvalues --    2.70966   2.70966   2.79567   2.80526   2.80526
 Alpha virt. eigenvalues --    2.85821   2.88252   2.88252   3.01008   3.03528
 Alpha virt. eigenvalues --    3.03528   3.05959   3.13847   3.24941   3.26127
 Alpha virt. eigenvalues --    3.37431   3.38449   3.38449   3.40244   3.43822
 Alpha virt. eigenvalues --    3.51965   3.51965   3.58268   3.67492   3.72533
 Alpha virt. eigenvalues --    3.72533   3.76207   3.79918   3.92180   4.02391
 Alpha virt. eigenvalues --    4.02391   4.26356   4.26356   4.38417   4.52637
 Alpha virt. eigenvalues --    4.52637   4.54901   4.73535   4.75550   4.79900
 Alpha virt. eigenvalues --    4.79900   4.91402   4.94847   5.14837   5.14837
 Alpha virt. eigenvalues --    5.15224   5.19492   5.23366   5.26401   5.30302
 Alpha virt. eigenvalues --    5.30302   5.36121   5.37681   5.37811   5.44699
 Alpha virt. eigenvalues --    5.44699   5.46439   5.55309   5.60274   5.60274
 Alpha virt. eigenvalues --    5.72098   5.74617   5.76876   5.76876   5.79818
 Alpha virt. eigenvalues --    5.79818   5.83279   5.84673   5.84673   5.88068
 Alpha virt. eigenvalues --    5.89114   5.93314   5.95345   5.95345   6.02481
 Alpha virt. eigenvalues --    6.02481   6.08670   6.13799   6.16481   6.16481
 Alpha virt. eigenvalues --    6.16604   6.23134   6.29404   6.29404   6.32803
 Alpha virt. eigenvalues --    6.40062   6.40434   6.40874   6.49170   6.49170
 Alpha virt. eigenvalues --    6.57900   6.59458   6.72525   6.73969   6.73969
 Alpha virt. eigenvalues --    6.77874   6.86319   6.86319   6.87124   7.05202
 Alpha virt. eigenvalues --    7.12659   7.14362   7.14362   7.18146   7.25878
 Alpha virt. eigenvalues --    7.29029   7.29029   7.34106   7.39315   7.39315
 Alpha virt. eigenvalues --    7.39577   7.40350   7.40576   7.45710   7.51239
 Alpha virt. eigenvalues --    7.51239   7.53204   7.67305   7.71561   7.71621
 Alpha virt. eigenvalues --    7.72844   7.80283   7.87784   7.87784   8.00509
 Alpha virt. eigenvalues --    8.00509   8.04456   8.05057   8.05148   8.05148
 Alpha virt. eigenvalues --    8.11108   8.16050   8.16050   8.19354   8.26358
 Alpha virt. eigenvalues --    8.27761   8.32056   8.36146   8.50252   8.50252
 Alpha virt. eigenvalues --    8.62152   8.62152   8.77469   8.90378   9.02647
 Alpha virt. eigenvalues --    9.19094   9.19094   9.29100   9.46252   9.46252
 Alpha virt. eigenvalues --    9.56092   9.58059   9.62463   9.64706   9.70968
 Alpha virt. eigenvalues --    9.70968  10.05245  10.05245  10.42980  10.50525
 Alpha virt. eigenvalues --   10.61663  10.66973  10.66973  10.81455  11.60619
 Alpha virt. eigenvalues --   11.60619  12.82903  13.02176  28.24613  29.07085
 Alpha virt. eigenvalues --   29.75574 145.68432 146.54772 147.32834
          Condensed to atoms (all electrons):
               1          2          3          4          5          6
     1  C    6.727183   0.050819   0.050819  -0.193242  -0.193242  -0.193242
     2  C    0.050819   5.955274  -0.359434  -0.019244  -0.019244   0.433604
     3  C    0.050819  -0.359434   5.955274   0.433604   0.433604  -0.019244
     4  H   -0.193242  -0.019244   0.433604   0.879546  -0.351620  -0.000349
     5  H   -0.193242  -0.019244   0.433604  -0.351620   0.879546  -0.000349
     6  H   -0.193242   0.433604  -0.019244  -0.000349  -0.000349   0.879546
     7  H   -0.193242   0.433604  -0.019244  -0.000349  -0.000349  -0.351620
               7
     1  C   -0.193242
     2  C    0.433604
     3  C   -0.019244
     4  H   -0.000349
     5  H   -0.000349
     6  H   -0.351620
     7  H    0.879546
 Mulliken charges:
               1
     1  C   -0.055855
     2  C   -0.475379
     3  C   -0.475379
     4  H    0.251653
     5  H    0.251653
     6  H    0.251653
     7  H    0.251653
 Sum of Mulliken charges =   0.00000
 Mulliken charges with hydrogens summed into heavy atoms:
               1
     1  C   -0.055855
     2  C    0.027928
     3  C    0.027928
 Electronic spatial extent (au):  <R**2>=            176.3517
 Charge=              0.0000 electrons
 Dipole moment (field-independent basis, Debye):
    X=              0.0000    Y=              0.0000    Z=              0.0000  Tot=              0.0000
 Quadrupole moment (field-independent basis, Debye-Ang):
   XX=            -19.5945   YY=            -19.5945   ZZ=            -15.5343
   XY=              0.0000   XZ=             -0.0000   YZ=              0.0000
 Traceless Quadrupole moment (field-independent basis, Debye-Ang):
   XX=             -1.3534   YY=             -1.3534   ZZ=              2.7068
   XY=              0.0000   XZ=             -0.0000   YZ=              0.0000
 Octapole moment (field-independent basis, Debye-Ang**2):
  XXX=             -0.0000  YYY=              0.0000  ZZZ=              0.0000  XYY=              0.0000
  XXY=             -0.0000  XXZ=             -3.7378  XZZ=             -0.0000  YZZ=              0.0000
  YYZ=              3.7378  XYZ=              0.0000
 Hexadecapole moment (field-independent basis, Debye-Ang**3):
 XXXX=            -29.8440 YYYY=            -29.8440 ZZZZ=           -178.1043 XXXY=             -0.0000
 XXXZ=             -0.0000 YYYX=             -0.0000 YYYZ=             -0.0000 ZZZX=             -0.0000
 ZZZY=             -0.0000 XXYY=            -10.8439 XXZZ=            -34.8554 YYZZ=            -34.8554
 XXYZ=              0.0000 YYXZ=             -0.0000 ZZXY=              0.0000
 N-N= 5.910878705740D+01 E-N=-3.882676730525D+02  KE= 1.160725497061D+02
 PrsmSu:  requested number of processors reduced to:  21 ShMem   1 Linda.
 No NMR shielding tensors so no spin-rotation constants.
 Leave Link  601 at Sat Apr 17 11:06:41 2021, MaxMem=   104857600 cpu:             409.2 elap:               8.9
 (Enter /s/ls4/users/knvvv/bin/g16sse/l801.exe)
 DoSCS=F DFT=T ScalE2(SS,OS)=  1.000000  1.000000
 Range of M.O.s used for correlation:     1   320
 NBasis=   321 NAE=    11 NBE=    11 NFC=     0 NFV=     0
 NROrb=    320 NOA=    11 NOB=    11 NVA=   309 NVB=   309

 **** Warning!!: The largest alpha MO coefficient is  0.87266416D+02

 Leave Link  801 at Sat Apr 17 11:06:41 2021, MaxMem=   104857600 cpu:               4.4 elap:               0.1
 (Enter /s/ls4/users/knvvv/bin/g16sse/l914.exe)
 RHF ground state
 Doing stability rather than CIS.
 Two-electron integrals replicated using symmetry.
 MDV=   104857600 DFT=T DoStab=T Mixed=T DoRPA=F DoScal=F NonHer=F
 Making orbital integer symmetry assigments:
 Orbital symmetries:
       Occupied  (A1) (B2) (A1) (A1) (B2) (A1) (B2) (E) (E) (E)
                 (E)
       Virtual   (A1) (B2) (E) (E) (A1) (E) (E) (B2) (E) (E) (A1)
                 (B1) (B2) (A1) (A2) (E) (E) (B2) (A1) (E) (E)
                 (A1) (B2) (E) (E) (B1) (E) (E) (B2) (A1) (A1)
                 (E) (E) (A2) (E) (E) (B2) (A1) (B2) (A1) (B1)
                 (E) (E) (B2) (E) (E) (A1) (B2) (B1) (E) (E) (A1)
                 (A2) (B2) (B2) (E) (E) (A1) (B1) (E) (E) (E) (E)
                 (A1) (A1) (E) (E) (B2) (E) (E) (E) (E) (A2) (B2)
                 (B2) (A1) (B2) (E) (E) (A1) (B2) (B1) (E) (E)
                 (A1) (E) (E) (B2) (A1) (E) (E) (A1) (B2) (E) (E)
                 (B1) (B2) (A2) (A2) (A1) (E) (E) (B1) (E) (E)
                 (A1) (A1) (E) (E) (B1) (E) (E) (A2) (B2) (B2)
                 (E) (E) (B2) (A1) (E) (E) (B2) (E) (E) (B1) (E)
                 (E) (B2) (A2) (A1) (A1) (E) (E) (A1) (B2) (E)
                 (E) (B2) (E) (E) (B1) (E) (E) (A1) (E) (E) (A1)
                 (B2) (A2) (A1) (B2) (E) (E) (A1) (B1) (E) (E)
                 (A2) (B2) (E) (E) (A1) (B2) (A1) (E) (E) (E) (E)
                 (B2) (E) (E) (A1) (A2) (A1) (E) (E) (B2) (B1)
                 (E) (E) (B2) (A1) (A2) (B1) (E) (E) (A2) (B2)
                 (B1) (E) (E) (A1) (A2) (E) (E) (B2) (A1) (E) (E)
                 (E) (E) (B2) (E) (E) (B1) (A1) (A2) (E) (E) (E)
                 (E) (B1) (B2) (E) (E) (A1) (B2) (E) (E) (A1) (A2)
                 (B2) (A1) (E) (E) (B2) (B1) (A2) (E) (E) (A1)
                 (E) (E) (A1) (B2) (B1) (E) (E) (A1) (B2) (E) (E)
                 (A1) (E) (E) (B1) (B2) (A2) (A1) (E) (E) (B2)
                 (B1) (A2) (B2) (A1) (A1) (E) (E) (E) (E) (B2)
                 (A1) (E) (E) (B2) (E) (E) (A1) (B1) (A2) (B2)
                 (A2) (E) (E) (E) (E) (B1) (A1) (B2) (E) (E) (A1)
                 (E) (E) (B2) (A1) (A2) (B1) (E) (E) (E) (E) (A1)
                 (B2) (B2) (E) (E) (A1) (E) (E) (B2) (A1) (A1)
                 (B2) (A1) (A1) (B2) (A1)
    24 initial guesses have been made.
 Convergence on wavefunction:    0.001000000000000
 Davidson Disk Diagonalization:  ConvIn= 1.00D-03 SkipCon=T Conv= 1.00D-03.
 Max sub-space:  2000 roots to seek:    24 dimension of matrix:         6798
 Iteration     1 Dimension    24 NMult     0 NNew     24
 Estimated number of processors is:   18
 CISAX will form     1 AO SS matrices at one time.
 NMat=     1 NSing=     1 JSym2X= 2.
 FoFJK:  IHMeth= 1 ICntrl=       0 DoSepK=F KAlg= 0 I1Cent=           0 FoldK=F
 IRaf= 970000000 NMat=       1 IRICut=       1 DoRegI=T DoRafI=F ISym2E= 2 IDoP0=0 IntGTp=1.
 FoFCou: FMM=F IPFlag=           0 FMFlag=      100000 FMFlg1=           0
         NFxFlg=           0 DoJE=F BraDBF=F KetDBF=F FulRan=T
         wScrn=  0.000000 ICntrl=         0 IOpCl=  0 I1Cent=           0 NGrid=           0
         NMat0=    1 NMatS0=      1 NMatT0=    0 NMatD0=    1 NMtDS0=    0 NMtDT0=    0
 Integrals replicated using symmetry in FoFCou.
 CoulSu:  requested number of processors reduced to:  17 ShMem   1 Linda.
 NMat=     1 NSing=     1 JSym2X= 2.
 CoulSu:  requested number of processors reduced to:  17 ShMem   1 Linda.
 NMat=     1 NSing=     1 JSym2X= 2.
 CoulSu:  requested number of processors reduced to:  17 ShMem   1 Linda.
 NMat=     1 NSing=     1 JSym2X= 2.
 CoulSu:  requested number of processors reduced to:  17 ShMem   1 Linda.
 NMat=     1 NSing=     1 JSym2X= 2.
 CoulSu:  requested number of processors reduced to:  17 ShMem   1 Linda.
 NMat=     1 NSing=     1 JSym2X= 2.
 CoulSu:  requested number of processors reduced to:  17 ShMem   1 Linda.
 NMat=     1 NSing=     1 JSym2X= 2.
 CoulSu:  requested number of processors reduced to:  17 ShMem   1 Linda.
 NMat=     1 NSing=     1 JSym2X= 2.
 CoulSu:  requested number of processors reduced to:  17 ShMem   1 Linda.
 NMat=     1 NSing=     1 JSym2X= 2.
 CoulSu:  requested number of processors reduced to:  17 ShMem   1 Linda.
 NMat=     1 NSing=     1 JSym2X= 2.
 CoulSu:  requested number of processors reduced to:  17 ShMem   1 Linda.
 NMat=     1 NSing=     1 JSym2X= 2.
 CoulSu:  requested number of processors reduced to:  17 ShMem   1 Linda.
 NMat=     1 NSing=     1 JSym2X= 2.
 CoulSu:  requested number of processors reduced to:  17 ShMem   1 Linda.
 NMat=     1 NSing=     0 JSym2X= 2.
 CoulSu:  requested number of processors reduced to:  17 ShMem   1 Linda.
 NMat=     1 NSing=     0 JSym2X= 2.
 CoulSu:  requested number of processors reduced to:  17 ShMem   1 Linda.
 NMat=     1 NSing=     0 JSym2X= 2.
 CoulSu:  requested number of processors reduced to:  17 ShMem   1 Linda.
 NMat=     1 NSing=     0 JSym2X= 2.
 CoulSu:  requested number of processors reduced to:  17 ShMem   1 Linda.
 NMat=     1 NSing=     0 JSym2X= 2.
 CoulSu:  requested number of processors reduced to:  17 ShMem   1 Linda.
 NMat=     1 NSing=     0 JSym2X= 2.
 CoulSu:  requested number of processors reduced to:  17 ShMem   1 Linda.
 NMat=     1 NSing=     0 JSym2X= 2.
 CoulSu:  requested number of processors reduced to:  17 ShMem   1 Linda.
 NMat=     1 NSing=     0 JSym2X= 2.
 CoulSu:  requested number of processors reduced to:  17 ShMem   1 Linda.
 NMat=     1 NSing=     0 JSym2X= 2.
 CoulSu:  requested number of processors reduced to:  17 ShMem   1 Linda.
 NMat=     1 NSing=     0 JSym2X= 2.
 CoulSu:  requested number of processors reduced to:  17 ShMem   1 Linda.
 NMat=     1 NSing=     0 JSym2X= 2.
 CoulSu:  requested number of processors reduced to:  17 ShMem   1 Linda.
 NMat=     1 NSing=     0 JSym2X= 2.
 CoulSu:  requested number of processors reduced to:  17 ShMem   1 Linda.
 New state      1 was old state     10
 Excitation Energies [eV] at current iteration:
 Root      1 :     4.494814927358437
 Root      2 :     5.209501602988984
 Root      3 :     5.911716444503181
 Root      4 :     6.002893364725208
 Root      5 :     6.369185187743946
 Root      6 :     7.089088675296103
 Root      7 :     7.138602197761051
 Root      8 :     7.138602197772591
 Root      9 :     7.151287734432214
 Root     10 :     7.151287734435501
 Root     11 :     7.832033060441630
 Root     12 :     7.832033060458887
 Root     13 :     7.888871459842761
 Root     14 :     7.888871459849112
 Root     15 :     8.623205928932594
 Root     16 :     8.623205928941742
 Root     17 :     8.657820541956470
 Root     18 :     8.657820541960682
 Root     19 :     8.971391805721408
 Root     20 :     9.095995277509751
 Root     21 :     9.116012533006979
 Root     22 :     9.400976235023926
 Root     23 :    11.726353102089340
 Root     24 :    13.751679363692480
 Iteration     2 Dimension    48 NMult    24 NNew     24
 Estimated number of processors is:   18
 CISAX will form     1 AO SS matrices at one time.
 NMat=     1 NSing=     1 JSym2X= 2.
 CoulSu:  requested number of processors reduced to:  17 ShMem   1 Linda.
 NMat=     1 NSing=     1 JSym2X= 2.
 CoulSu:  requested number of processors reduced to:  17 ShMem   1 Linda.
 NMat=     1 NSing=     1 JSym2X= 2.
 CoulSu:  requested number of processors reduced to:  17 ShMem   1 Linda.
 NMat=     1 NSing=     1 JSym2X= 2.
 CoulSu:  requested number of processors reduced to:  17 ShMem   1 Linda.
 NMat=     1 NSing=     1 JSym2X= 2.
 CoulSu:  requested number of processors reduced to:  17 ShMem   1 Linda.
 NMat=     1 NSing=     1 JSym2X= 2.
 CoulSu:  requested number of processors reduced to:  17 ShMem   1 Linda.
 NMat=     1 NSing=     1 JSym2X= 2.
 CoulSu:  requested number of processors reduced to:  17 ShMem   1 Linda.
 NMat=     1 NSing=     1 JSym2X= 2.
 CoulSu:  requested number of processors reduced to:  17 ShMem   1 Linda.
 NMat=     1 NSing=     1 JSym2X= 2.
 CoulSu:  requested number of processors reduced to:  17 ShMem   1 Linda.
 NMat=     1 NSing=     1 JSym2X= 2.
 CoulSu:  requested number of processors reduced to:  17 ShMem   1 Linda.
 NMat=     1 NSing=     1 JSym2X= 2.
 CoulSu:  requested number of processors reduced to:  17 ShMem   1 Linda.
 NMat=     1 NSing=     1 JSym2X= 2.
 CoulSu:  requested number of processors reduced to:  17 ShMem   1 Linda.
 NMat=     1 NSing=     0 JSym2X= 2.
 CoulSu:  requested number of processors reduced to:  17 ShMem   1 Linda.
 NMat=     1 NSing=     0 JSym2X= 2.
 CoulSu:  requested number of processors reduced to:  17 ShMem   1 Linda.
 NMat=     1 NSing=     0 JSym2X= 2.
 CoulSu:  requested number of processors reduced to:  17 ShMem   1 Linda.
 NMat=     1 NSing=     0 JSym2X= 2.
 CoulSu:  requested number of processors reduced to:  17 ShMem   1 Linda.
 NMat=     1 NSing=     0 JSym2X= 2.
 CoulSu:  requested number of processors reduced to:  17 ShMem   1 Linda.
 NMat=     1 NSing=     0 JSym2X= 2.
 CoulSu:  requested number of processors reduced to:  17 ShMem   1 Linda.
 NMat=     1 NSing=     0 JSym2X= 2.
 CoulSu:  requested number of processors reduced to:  17 ShMem   1 Linda.
 NMat=     1 NSing=     0 JSym2X= 2.
 CoulSu:  requested number of processors reduced to:  17 ShMem   1 Linda.
 NMat=     1 NSing=     0 JSym2X= 2.
 CoulSu:  requested number of processors reduced to:  17 ShMem   1 Linda.
 NMat=     1 NSing=     0 JSym2X= 2.
 CoulSu:  requested number of processors reduced to:  17 ShMem   1 Linda.
 NMat=     1 NSing=     0 JSym2X= 2.
 CoulSu:  requested number of processors reduced to:  17 ShMem   1 Linda.
 NMat=     1 NSing=     0 JSym2X= 2.
 CoulSu:  requested number of processors reduced to:  17 ShMem   1 Linda.
 Root      1 not converged, maximum delta is    0.130745781120040
 Excitation Energies [eV] at current iteration:
 Root      1 :     3.425996271877311   Change is   -1.068818655481126
 Root      2 :     4.433585976576136   Change is   -0.775915626412849
 Root      3 :     5.605257135156569   Change is   -0.306459309346613
 Root      4 :     5.760519176489373   Change is   -0.242374188235835
 Root      5 :     6.194892051856930   Change is   -0.174293135887017
 Root      6 :     6.925672872282533   Change is   -0.163415803013569
 Root      7 :     6.940893899531237   Change is   -0.197708298229814
 Root      8 :     6.940893899538778   Change is   -0.197708298233813
 Root      9 :     7.038853414074970   Change is   -0.112434320357243
 Root     10 :     7.038853414077447   Change is   -0.112434320358053
 Root     11 :     7.739598151579227   Change is   -0.092434908862403
 Root     12 :     7.739598151591632   Change is   -0.092434908867255
 Root     13 :     7.813903440557198   Change is   -0.074968019285563
 Root     14 :     7.813903440560733   Change is   -0.074968019288379
 Root     15 :     8.500702312420746   Change is   -0.122503616511848
 Root     16 :     8.500702312428988   Change is   -0.122503616512754
 Root     17 :     8.561967428801527   Change is   -0.095853113154944
 Root     18 :     8.561967428806112   Change is   -0.095853113154569
 Root     19 :     8.582630207840488   Change is   -0.513365069669263
 Root     20 :     8.826788888215706   Change is   -0.144602917505702
 Root     21 :     8.936344640761938   Change is   -0.179667892245040
 Root     22 :     9.138788183374933   Change is   -2.587564918714402
 Root     23 :     9.215639314910160   Change is   -0.185336920113766
 Root     24 :    10.514684057086990   Change is   -3.236995306605490
 Iteration     3 Dimension    54 NMult    48 NNew      6
 Estimated number of processors is:   18
 CISAX will form     1 AO SS matrices at one time.
 NMat=     1 NSing=     1 JSym2X= 2.
 CoulSu:  requested number of processors reduced to:  17 ShMem   1 Linda.
 NMat=     1 NSing=     1 JSym2X= 2.
 CoulSu:  requested number of processors reduced to:  17 ShMem   1 Linda.
 NMat=     1 NSing=     1 JSym2X= 2.
 CoulSu:  requested number of processors reduced to:  17 ShMem   1 Linda.
 NMat=     1 NSing=     0 JSym2X= 2.
 CoulSu:  requested number of processors reduced to:  17 ShMem   1 Linda.
 NMat=     1 NSing=     0 JSym2X= 2.
 CoulSu:  requested number of processors reduced to:  17 ShMem   1 Linda.
 NMat=     1 NSing=     0 JSym2X= 2.
 CoulSu:  requested number of processors reduced to:  17 ShMem   1 Linda.
 Root      1 not converged, maximum delta is    0.007116001025981
 Excitation Energies [eV] at current iteration:
 Root      1 :     3.386555492168713   Change is   -0.039440779708599
 Root      2 :     4.393315143990980   Change is   -0.040270832585156
 Root      3 :     5.596797195057479   Change is   -0.008459940099089
 Root      4 :     5.755078840636322   Change is   -0.005440335853050
 Root      5 :     6.918045609138733   Change is   -0.007627263143800
 Root      6 :     7.023201341724657   Change is   -0.015652072350313
 Iteration     4 Dimension    60 NMult    54 NNew      6
 Estimated number of processors is:   18
 CISAX will form     1 AO SS matrices at one time.
 NMat=     1 NSing=     1 JSym2X= 2.
 CoulSu:  requested number of processors reduced to:  17 ShMem   1 Linda.
 NMat=     1 NSing=     1 JSym2X= 2.
 CoulSu:  requested number of processors reduced to:  17 ShMem   1 Linda.
 NMat=     1 NSing=     1 JSym2X= 2.
 CoulSu:  requested number of processors reduced to:  17 ShMem   1 Linda.
 NMat=     1 NSing=     0 JSym2X= 2.
 CoulSu:  requested number of processors reduced to:  17 ShMem   1 Linda.
 NMat=     1 NSing=     0 JSym2X= 2.
 CoulSu:  requested number of processors reduced to:  17 ShMem   1 Linda.
 NMat=     1 NSing=     0 JSym2X= 2.
 CoulSu:  requested number of processors reduced to:  17 ShMem   1 Linda.
 Root      1 not converged, maximum delta is    0.002597031749728
 Excitation Energies [eV] at current iteration:
 Root      1 :     3.385384545596072   Change is   -0.001170946572641
 Root      2 :     4.390238190836457   Change is   -0.003076953154523
 Root      3 :     5.596189516976167   Change is   -0.000607678081312
 Root      4 :     5.754429724849560   Change is   -0.000649115786763
 Root      5 :     6.917576915283099   Change is   -0.000468693855635
 Root      6 :     7.022267326534753   Change is   -0.000934015189904
 Iteration     5 Dimension    66 NMult    60 NNew      6
 Estimated number of processors is:   18
 CISAX will form     1 AO SS matrices at one time.
 NMat=     1 NSing=     1 JSym2X= 2.
 CoulSu:  requested number of processors reduced to:  17 ShMem   1 Linda.
 NMat=     1 NSing=     1 JSym2X= 2.
 CoulSu:  requested number of processors reduced to:  17 ShMem   1 Linda.
 NMat=     1 NSing=     1 JSym2X= 2.
 CoulSu:  requested number of processors reduced to:  17 ShMem   1 Linda.
 NMat=     1 NSing=     0 JSym2X= 2.
 CoulSu:  requested number of processors reduced to:  17 ShMem   1 Linda.
 NMat=     1 NSing=     0 JSym2X= 2.
 CoulSu:  requested number of processors reduced to:  17 ShMem   1 Linda.
 NMat=     1 NSing=     0 JSym2X= 2.
 CoulSu:  requested number of processors reduced to:  17 ShMem   1 Linda.
 Root      1 has converged.
 Excitation Energies [eV] at current iteration:
 Root      1 :     3.385356532863414   Change is   -0.000028012732658
 Root      2 :     4.390112646813055   Change is   -0.000125544023402
 Root      3 :     5.596174132210864   Change is   -0.000015384765303
 Root      4 :     5.754369389923788   Change is   -0.000060334925772
 Root      5 :     6.917514805631463   Change is   -0.000062109651635
 Root      6 :     7.022203043532534   Change is   -0.000064283002220
 Convergence achieved on expansion vectors.
 ***********************************************************************
 Stability analysis using <AA,BB:AA,BB> singles matrix:
 ***********************************************************************
 1PDM for each excited state written to RWF  633
 Ground to excited state transition densities written to RWF  633

 Eigenvectors of the stability matrix:
 
 Eigenvector   1:      Triplet-E    Eigenvalue= 0.1244096  <S**2>=2.000
      10 -> 14         0.13648
      10 -> 15         0.43811
      10 -> 18        -0.12844
      10 -> 28         0.10033
      11 -> 14         0.43811
      11 -> 15        -0.13648
      11 -> 17        -0.12843
      11 -> 27         0.10034
 The wavefunction is stable under the perturbations considered.
 Leave Link  914 at Sat Apr 17 11:16:46 2021, MaxMem=   104857600 cpu:           20936.5 elap:             604.4
 (Enter /s/ls4/users/knvvv/bin/g16sse/l508.exe)
 The wavefunction is already stable.
 Leave Link  508 at Sat Apr 17 11:16:46 2021, MaxMem=   104857600 cpu:               2.2 elap:               0.1
 (Enter /s/ls4/users/knvvv/bin/g16sse/l601.exe)
 Copying SCF densities to generalized density rwf, IOpCl= 0 IROHF=0.

 **********************************************************************

            Population analysis using the SCF density.

 **********************************************************************

 Orbital symmetries:
       Occupied  (A1) (B2) (A1) (A1) (B2) (A1) (B2) (E) (E) (E)
                 (E)
       Virtual   (A1) (B2) (E) (E) (A1) (E) (E) (B2) (E) (E) (A1)
                 (B1) (B2) (A1) (A2) (E) (E) (B2) (A1) (E) (E)
                 (A1) (B2) (E) (E) (B1) (E) (E) (B2) (A1) (A1)
                 (E) (E) (A2) (E) (E) (B2) (A1) (B2) (A1) (B1)
                 (E) (E) (B2) (E) (E) (A1) (B2) (B1) (E) (E) (A1)
                 (A2) (B2) (B2) (E) (E) (A1) (B1) (E) (E) (E) (E)
                 (A1) (A1) (E) (E) (B2) (E) (E) (E) (E) (A2) (B2)
                 (B2) (A1) (B2) (E) (E) (A1) (B2) (B1) (E) (E)
                 (A1) (E) (E) (B2) (A1) (E) (E) (A1) (B2) (E) (E)
                 (B1) (B2) (A2) (A2) (A1) (E) (E) (B1) (E) (E)
                 (A1) (A1) (E) (E) (B1) (E) (E) (A2) (B2) (B2)
                 (E) (E) (B2) (A1) (E) (E) (B2) (E) (E) (B1) (E)
                 (E) (B2) (A2) (A1) (A1) (E) (E) (A1) (B2) (E)
                 (E) (B2) (E) (E) (B1) (E) (E) (A1) (E) (E) (A1)
                 (B2) (A2) (A1) (B2) (E) (E) (A1) (B1) (E) (E)
                 (A2) (B2) (E) (E) (A1) (B2) (A1) (E) (E) (E) (E)
                 (B2) (E) (E) (A1) (A2) (A1) (E) (E) (B2) (B1)
                 (E) (E) (B2) (A1) (A2) (B1) (E) (E) (A2) (B2)
                 (B1) (E) (E) (A1) (A2) (E) (E) (B2) (A1) (E) (E)
                 (E) (E) (B2) (E) (E) (B1) (A1) (A2) (E) (E) (E)
                 (E) (B1) (B2) (E) (E) (A1) (B2) (E) (E) (A1) (A2)
                 (B2) (A1) (E) (E) (B2) (B1) (A2) (E) (E) (A1)
                 (E) (E) (A1) (B2) (B1) (E) (E) (A1) (B2) (E) (E)
                 (A1) (E) (E) (B1) (B2) (A2) (A1) (E) (E) (B2)
                 (B1) (A2) (B2) (A1) (A1) (E) (E) (E) (E) (B2)
                 (A1) (E) (E) (B2) (E) (E) (A1) (B1) (A2) (B2)
                 (A2) (E) (E) (E) (E) (B1) (A1) (B2) (E) (E) (A1)
                 (E) (E) (B2) (A1) (A2) (B1) (E) (E) (E) (E) (A1)
                 (B2) (B2) (E) (E) (A1) (E) (E) (B2) (A1) (A1)
                 (B2) (A1) (A1) (B2) (A1)
 The electronic state is 1-A1.
 Alpha  occ. eigenvalues --  -10.56920 -10.54821 -10.54815  -0.89207  -0.79613
 Alpha  occ. eigenvalues --   -0.59916  -0.51793  -0.51657  -0.51657  -0.32894
 Alpha  occ. eigenvalues --   -0.32894
 Alpha virt. eigenvalues --    0.01070   0.03059   0.03677   0.03677   0.05969
 Alpha virt. eigenvalues --    0.09187   0.09187   0.11423   0.14026   0.14026
 Alpha virt. eigenvalues --    0.15030   0.15110   0.16256   0.18317   0.19838
 Alpha virt. eigenvalues --    0.20705   0.20705   0.21194   0.22513   0.24497
 Alpha virt. eigenvalues --    0.24497   0.25379   0.26361   0.26595   0.26595
 Alpha virt. eigenvalues --    0.28422   0.29779   0.29779   0.32551   0.33400
 Alpha virt. eigenvalues --    0.34177   0.34615   0.34615   0.37780   0.38508
 Alpha virt. eigenvalues --    0.38508   0.39106   0.39930   0.43054   0.44777
 Alpha virt. eigenvalues --    0.44863   0.45397   0.45397   0.45556   0.48523
 Alpha virt. eigenvalues --    0.48523   0.50822   0.54398   0.55414   0.57530
 Alpha virt. eigenvalues --    0.57530   0.59581   0.63680   0.70202   0.72525
 Alpha virt. eigenvalues --    0.73153   0.73153   0.75108   0.79260   0.80973
 Alpha virt. eigenvalues --    0.80973   0.86358   0.86358   0.86865   0.89667
 Alpha virt. eigenvalues --    0.91093   0.91093   0.93743   0.94085   0.94085
 Alpha virt. eigenvalues --    1.00403   1.00403   1.00483   1.01682   1.06369
 Alpha virt. eigenvalues --    1.07460   1.16337   1.17096   1.17096   1.19408
 Alpha virt. eigenvalues --    1.20651   1.22699   1.27928   1.27928   1.29701
 Alpha virt. eigenvalues --    1.35259   1.35259   1.36802   1.39063   1.59177
 Alpha virt. eigenvalues --    1.59177   1.59237   1.68102   1.72524   1.72524
 Alpha virt. eigenvalues --    1.78320   1.80564   1.86990   1.92141   1.92670
 Alpha virt. eigenvalues --    1.92922   1.92922   1.95829   1.97273   1.97273
 Alpha virt. eigenvalues --    1.98473   2.06866   2.07843   2.07843   2.12613
 Alpha virt. eigenvalues --    2.13173   2.13173   2.13649   2.16523   2.17450
 Alpha virt. eigenvalues --    2.22167   2.22167   2.26622   2.28832   2.37145
 Alpha virt. eigenvalues --    2.37145   2.38356   2.43581   2.43581   2.46732
 Alpha virt. eigenvalues --    2.52283   2.52283   2.53542   2.55294   2.57060
 Alpha virt. eigenvalues --    2.63826   2.64244   2.64244   2.70264   2.70606
 Alpha virt. eigenvalues --    2.70966   2.70966   2.79567   2.80526   2.80526
 Alpha virt. eigenvalues --    2.85821   2.88252   2.88252   3.01008   3.03528
 Alpha virt. eigenvalues --    3.03528   3.05959   3.13847   3.24941   3.26127
 Alpha virt. eigenvalues --    3.37431   3.38449   3.38449   3.40244   3.43822
 Alpha virt. eigenvalues --    3.51965   3.51965   3.58268   3.67492   3.72533
 Alpha virt. eigenvalues --    3.72533   3.76207   3.79918   3.92180   4.02391
 Alpha virt. eigenvalues --    4.02391   4.26356   4.26356   4.38417   4.52637
 Alpha virt. eigenvalues --    4.52637   4.54901   4.73535   4.75550   4.79900
 Alpha virt. eigenvalues --    4.79900   4.91402   4.94847   5.14837   5.14837
 Alpha virt. eigenvalues --    5.15224   5.19492   5.23366   5.26401   5.30302
 Alpha virt. eigenvalues --    5.30302   5.36121   5.37681   5.37811   5.44699
 Alpha virt. eigenvalues --    5.44699   5.46439   5.55309   5.60274   5.60274
 Alpha virt. eigenvalues --    5.72098   5.74617   5.76876   5.76876   5.79818
 Alpha virt. eigenvalues --    5.79818   5.83279   5.84673   5.84673   5.88068
 Alpha virt. eigenvalues --    5.89114   5.93314   5.95345   5.95345   6.02481
 Alpha virt. eigenvalues --    6.02481   6.08670   6.13799   6.16481   6.16481
 Alpha virt. eigenvalues --    6.16604   6.23134   6.29404   6.29404   6.32803
 Alpha virt. eigenvalues --    6.40062   6.40434   6.40874   6.49170   6.49170
 Alpha virt. eigenvalues --    6.57900   6.59458   6.72525   6.73969   6.73969
 Alpha virt. eigenvalues --    6.77874   6.86319   6.86319   6.87124   7.05202
 Alpha virt. eigenvalues --    7.12659   7.14362   7.14362   7.18146   7.25878
 Alpha virt. eigenvalues --    7.29029   7.29029   7.34106   7.39315   7.39315
 Alpha virt. eigenvalues --    7.39577   7.40350   7.40576   7.45710   7.51239
 Alpha virt. eigenvalues --    7.51239   7.53204   7.67305   7.71561   7.71621
 Alpha virt. eigenvalues --    7.72844   7.80283   7.87784   7.87784   8.00509
 Alpha virt. eigenvalues --    8.00509   8.04456   8.05057   8.05148   8.05148
 Alpha virt. eigenvalues --    8.11108   8.16050   8.16050   8.19354   8.26358
 Alpha virt. eigenvalues --    8.27761   8.32056   8.36146   8.50252   8.50252
 Alpha virt. eigenvalues --    8.62152   8.62152   8.77469   8.90378   9.02647
 Alpha virt. eigenvalues --    9.19094   9.19094   9.29100   9.46252   9.46252
 Alpha virt. eigenvalues --    9.56092   9.58059   9.62463   9.64706   9.70968
 Alpha virt. eigenvalues --    9.70968  10.05245  10.05245  10.42980  10.50525
 Alpha virt. eigenvalues --   10.61663  10.66973  10.66973  10.81455  11.60619
 Alpha virt. eigenvalues --   11.60619  12.82903  13.02176  28.24613  29.07085
 Alpha virt. eigenvalues --   29.75574 145.68432 146.54772 147.32834
          Condensed to atoms (all electrons):
               1          2          3          4          5          6
     1  C    6.727183   0.050819   0.050819  -0.193242  -0.193242  -0.193242
     2  C    0.050819   5.955274  -0.359434  -0.019244  -0.019244   0.433604
     3  C    0.050819  -0.359434   5.955274   0.433604   0.433604  -0.019244
     4  H   -0.193242  -0.019244   0.433604   0.879546  -0.351620  -0.000349
     5  H   -0.193242  -0.019244   0.433604  -0.351620   0.879546  -0.000349
     6  H   -0.193242   0.433604  -0.019244  -0.000349  -0.000349   0.879546
     7  H   -0.193242   0.433604  -0.019244  -0.000349  -0.000349  -0.351620
               7
     1  C   -0.193242
     2  C    0.433604
     3  C   -0.019244
     4  H   -0.000349
     5  H   -0.000349
     6  H   -0.351620
     7  H    0.879546
 Mulliken charges:
               1
     1  C   -0.055855
     2  C   -0.475379
     3  C   -0.475379
     4  H    0.251653
     5  H    0.251653
     6  H    0.251653
     7  H    0.251653
 Sum of Mulliken charges =   0.00000
 Mulliken charges with hydrogens summed into heavy atoms:
               1
     1  C   -0.055855
     2  C    0.027928
     3  C    0.027928
 Electronic spatial extent (au):  <R**2>=            176.3517
 Charge=              0.0000 electrons
 Dipole moment (field-independent basis, Debye):
    X=              0.0000    Y=              0.0000    Z=              0.0000  Tot=              0.0000
 Quadrupole moment (field-independent basis, Debye-Ang):
   XX=            -19.5945   YY=            -19.5945   ZZ=            -15.5343
   XY=              0.0000   XZ=             -0.0000   YZ=              0.0000
 Traceless Quadrupole moment (field-independent basis, Debye-Ang):
   XX=             -1.3534   YY=             -1.3534   ZZ=              2.7068
   XY=              0.0000   XZ=             -0.0000   YZ=              0.0000
 Octapole moment (field-independent basis, Debye-Ang**2):
  XXX=             -0.0000  YYY=              0.0000  ZZZ=              0.0000  XYY=              0.0000
  XXY=             -0.0000  XXZ=             -3.7378  XZZ=             -0.0000  YZZ=              0.0000
  YYZ=              3.7378  XYZ=              0.0000
 Hexadecapole moment (field-independent basis, Debye-Ang**3):
 XXXX=            -29.8440 YYYY=            -29.8440 ZZZZ=           -178.1043 XXXY=             -0.0000
 XXXZ=             -0.0000 YYYX=             -0.0000 YYYZ=             -0.0000 ZZZX=             -0.0000
 ZZZY=             -0.0000 XXYY=            -10.8439 XXZZ=            -34.8554 YYZZ=            -34.8554
 XXYZ=              0.0000 YYXZ=             -0.0000 ZZXY=              0.0000
 N-N= 5.910878705740D+01 E-N=-3.882676730525D+02  KE= 1.160725497061D+02
 PrsmSu:  requested number of processors reduced to:  21 ShMem   1 Linda.
 No NMR shielding tensors so no spin-rotation constants.
 Leave Link  601 at Sat Apr 17 11:16:55 2021, MaxMem=   104857600 cpu:             423.6 elap:               9.2
 (Enter /s/ls4/users/knvvv/bin/g16sse/l9999.exe)

 Test job not archived.
 1\1\GINC-N146\Stability\RM062X\Gen\C3H4\KNVVV\17-Apr-2021\0\\#P M062X/
 GEN Integral=UltraFineGrid SCF=NoSymm Stable=(RExt, Opt) IOp(1/33=1)\\
 Database calculations.\\0,1\C,0,0.,0.,0.\C,0,0.,0.,1.310515161\C,0,0.,
 0.,-1.310515161\H,0,-0.929020412,0.,-1.8660595789\H,0,0.929020412,0.,-
 1.8660595789\H,0,0.,0.929020412,1.8660595789\H,0,0.,-0.929020412,1.866
 0595789\\Version=ES64L-G16RevA.03\State=1-A1\HF=-116.6528965\RMSD=4.54
 6e-09\Dipole=0.,0.,0.\Quadrupole=-1.0062152,-1.0062152,2.0124304,0.,0.
 ,0.\PG=D02D [O(C1),C2(C1.C1),2SGD(H2)]\\@


 BLESSED ARE THOSE WHO NOUGHT EXPECT,
 FOR THEY SHALL NOT BE DISAPPOINTED..  WALCOT - ODE TO PITT
 Job cpu time:       0 days 10 hours 34 minutes  7.7 seconds.
 Elapsed time:       0 days  0 hours 16 minutes 15.2 seconds.
 File lengths (MBytes):  RWF=    193 Int=      0 D2E=      0 Chk=     12 Scr=      1
 Normal termination of Gaussian 16 at Sat Apr 17 11:16:55 2021.
