 Entering Gaussian System, Link 0=/s/ls4/users/knvvv/bin/g16sse/g16
 Input=data/database/M062X--def2-QZVP--W4-11_c-hooo.gjf
 Output=data/database/M062X--def2-QZVP--W4-11_c-hooo.log
 Initial command:
 /s/ls4/users/knvvv/bin/g16sse/l1.exe "/s/ls4/users/knvvv/bin/scratch/Gau-9186.inp" -scrdir="/s/ls4/users/knvvv/bin/scratch/"
 Entering Link 1 = /s/ls4/users/knvvv/bin/g16sse/l1.exe PID=      9187.
  
 Copyright (c) 1988,1990,1992,1993,1995,1998,2003,2009,2016,
            Gaussian, Inc.  All Rights Reserved.
  
 This is part of the Gaussian(R) 16 program.  It is based on
 the Gaussian(R) 09 system (copyright 2009, Gaussian, Inc.),
 the Gaussian(R) 03 system (copyright 2003, Gaussian, Inc.),
 the Gaussian(R) 98 system (copyright 1998, Gaussian, Inc.),
 the Gaussian(R) 94 system (copyright 1995, Gaussian, Inc.),
 the Gaussian 92(TM) system (copyright 1992, Gaussian, Inc.),
 the Gaussian 90(TM) system (copyright 1990, Gaussian, Inc.),
 the Gaussian 88(TM) system (copyright 1988, Gaussian, Inc.),
 the Gaussian 86(TM) system (copyright 1986, Carnegie Mellon
 University), and the Gaussian 82(TM) system (copyright 1983,
 Carnegie Mellon University). Gaussian is a federally registered
 trademark of Gaussian, Inc.
  
 This software contains proprietary and confidential information,
 including trade secrets, belonging to Gaussian, Inc.
  
 This software is provided under written license and may be
 used, copied, transmitted, or stored only in accord with that
 written license.
  
 The following legend is applicable only to US Government
 contracts under FAR:
  
                    RESTRICTED RIGHTS LEGEND
  
 Use, reproduction and disclosure by the US Government is
 subject to restrictions as set forth in subparagraphs (a)
 and (c) of the Commercial Computer Software - Restricted
 Rights clause in FAR 52.227-19.
  
 Gaussian, Inc.
 340 Quinnipiac St., Bldg. 40, Wallingford CT 06492
  
  
 ---------------------------------------------------------------
 Warning -- This program may not be used in any manner that
 competes with the business of Gaussian, Inc. or will provide
 assistance to any competitor of Gaussian, Inc.  The licensee
 of this program is prohibited from giving any competitor of
 Gaussian, Inc. access to this program.  By using this program,
 the user acknowledges that Gaussian, Inc. is engaged in the
 business of creating and licensing software in the field of
 computational chemistry and represents and warrants to the
 licensee that it is not a competitor of Gaussian, Inc. and that
 it will not use this program in any manner prohibited above.
 ---------------------------------------------------------------
  

 Cite this work as:
 Gaussian 16, Revision A.03,
 M. J. Frisch, G. W. Trucks, H. B. Schlegel, G. E. Scuseria, 
 M. A. Robb, J. R. Cheeseman, G. Scalmani, V. Barone, 
 G. A. Petersson, H. Nakatsuji, X. Li, M. Caricato, A. V. Marenich, 
 J. Bloino, B. G. Janesko, R. Gomperts, B. Mennucci, H. P. Hratchian, 
 J. V. Ortiz, A. F. Izmaylov, J. L. Sonnenberg, D. Williams-Young, 
 F. Ding, F. Lipparini, F. Egidi, J. Goings, B. Peng, A. Petrone, 
 T. Henderson, D. Ranasinghe, V. G. Zakrzewski, J. Gao, N. Rega, 
 G. Zheng, W. Liang, M. Hada, M. Ehara, K. Toyota, R. Fukuda, 
 J. Hasegawa, M. Ishida, T. Nakajima, Y. Honda, O. Kitao, H. Nakai, 
 T. Vreven, K. Throssell, J. A. Montgomery, Jr., J. E. Peralta, 
 F. Ogliaro, M. J. Bearpark, J. J. Heyd, E. N. Brothers, K. N. Kudin, 
 V. N. Staroverov, T. A. Keith, R. Kobayashi, J. Normand, 
 K. Raghavachari, A. P. Rendell, J. C. Burant, S. S. Iyengar, 
 J. Tomasi, M. Cossi, J. M. Millam, M. Klene, C. Adamo, R. Cammi, 
 J. W. Ochterski, R. L. Martin, K. Morokuma, O. Farkas, 
 J. B. Foresman, and D. J. Fox, Gaussian, Inc., Wallingford CT, 2016.
 
 ******************************************
 Gaussian 16:  ES64L-G16RevA.03 25-Dec-2016
                18-Apr-2021 
 ******************************************
 %RWF=temp23_64352,70GB
 %nprocshared=48
 Will use up to   48 processors via shared memory.
 Default route: MaxDisk=80GB
 ----------------------------------------------------------------------
 #P M062X/Def2QZVP Integral=UltraFineGrid SCF=NoSymm Stable=(RExt, Opt)
  IOp(1/33=1)
 ----------------------------------------------------------------------
 1/33=1,38=1,172=1/1;
 2/12=2,17=6,18=5,40=1/2;
 3/5=45,7=101,11=2,25=1,30=1,74=-55,75=-5/1,2,3;
 4/9=2/1;
 5/5=2,38=5/2;
 6/7=2,8=2,9=2,10=2,28=1/1;
 8/6=1,10=90,11=11/1;
 9/8=-3,42=1,46=1/14;
 5/5=2,8=3,17=40,38=5/8(-2);
 6/7=2,8=2,9=2,10=2,28=1/1;
 99/5=1,9=1/99;
 Leave Link    1 at Sun Apr 18 03:56:22 2021, MaxMem=           0 cpu:               8.3 elap:               0.2
 (Enter /s/ls4/users/knvvv/bin/g16sse/l101.exe)
 ONIOM data not found on unit 2.
 ----------------------
 Database calculations.
 ----------------------
 TstMul:  ICh=     0
 TstMul:  Mul=     2
 TstMul:  ICh=     0
 TstMul:  Mul=     2
 Symbolic Z-matrix:
 Charge =  0 Multiplicity = 2
 O                     0.        0.30342  -1.09371 
 O                     0.       -0.52736  -0.16097 
 O                     0.        0.15631   1.19926 
 H                     0.        1.07362   0.8798 
 
 RdStrC is calling ZToCFu for IStruc=1 NZ=     4.
 PrtBox:  NBox=     1 Levels=  1 BoxLen=    8.00 SMaxX=        4.33
          Shift=            0.000000            0.996568            2.066818
 Box      1 Number                   0 centers from      1 to      4:
 After GenITR:
 ITRead=  0  0  0  0
 MicOpt= -1 -1 -1 -1
 ITRead=  0  0  0  0
 MicOpt= -1 -1 -1 -1
 NAtoms=      4 NQM=        4 NQMF=       0 NMMI=      0 NMMIF=      0
                NMic=       0 NMicF=      0.
                    Isotopes and Nuclear Properties:
 (Nuclear quadrupole moments (NQMom) in fm**2, nuclear magnetic moments (NMagM)
  in nuclear magnetons)

  Atom         1           2           3           4
 IAtWgt=          16          16          16           1
 AtmWgt=  15.9949146  15.9949146  15.9949146   1.0078250
 NucSpn=           0           0           0           1
 AtZEff=  -0.0000000  -0.0000000  -0.0000000  -0.0000000
 NQMom=    0.0000000   0.0000000   0.0000000   0.0000000
 NMagM=    0.0000000   0.0000000   0.0000000   2.7928460
 AtZNuc=   8.0000000   8.0000000   8.0000000   1.0000000
 No MM parameters found.
 Leave Link  101 at Sun Apr 18 03:56:22 2021, MaxMem=   104857600 cpu:               6.6 elap:               0.2
 (Enter /s/ls4/users/knvvv/bin/g16sse/l202.exe)
                          Input orientation:                          
 ---------------------------------------------------------------------
 Center     Atomic      Atomic             Coordinates (Angstroms)
 Number     Number       Type             X           Y           Z
 ---------------------------------------------------------------------
      1          8           0        0.000000    0.303416   -1.093713
      2          8           0        0.000000   -0.527361   -0.160970
      3          8           0        0.000000    0.156309    1.199256
      4          1           0        0.000000    1.073618    0.879802
 ---------------------------------------------------------------------
                    Distance matrix (angstroms):
                    1          2          3          4
     1  O    0.000000
     2  O    1.249079   0.000000
     3  O    2.297683   1.522373   0.000000
     4  H    2.118484   1.909540   0.971344   0.000000
 Stoichiometry    HO3(2)
 Framework group  CS[SG(HO3)]
 Deg. of freedom     5
 Full point group                 CS      NOp   2
 Largest Abelian subgroup         CS      NOp   2
 Largest concise Abelian subgroup C1      NOp   1
                         Standard orientation:                         
 ---------------------------------------------------------------------
 Center     Atomic      Atomic             Coordinates (Angstroms)
 Number     Number       Type             X           Y           Z
 ---------------------------------------------------------------------
      1          8           0        1.143943    0.075354   -0.000000
      2          8           0        0.000000    0.576945   -0.000000
      3          8           0       -1.082114   -0.493872    0.000000
      4          1           0       -0.494634   -1.267419    0.000000
 ---------------------------------------------------------------------
 Rotational constants (GHZ):          67.6244282          11.6629695           9.9473771
 Leave Link  202 at Sun Apr 18 03:56:22 2021, MaxMem=   104857600 cpu:               6.8 elap:               0.2
 (Enter /s/ls4/users/knvvv/bin/g16sse/l301.exe)
 Standard basis: def2QZVP (5D, 7F)
 Ernie: Thresh=  0.10000D-02 Tol=  0.10000D-05 Strict=F.
 There are   168 symmetry adapted cartesian basis functions of A'  symmetry.
 There are    83 symmetry adapted cartesian basis functions of A"  symmetry.
 There are   131 symmetry adapted basis functions of A'  symmetry.
 There are    70 symmetry adapted basis functions of A"  symmetry.
   201 basis functions,   314 primitive gaussians,   251 cartesian basis functions
    13 alpha electrons       12 beta electrons
       nuclear repulsion energy        72.6736551764 Hartrees.
 IExCor= 4336 DFT=T Ex+Corr=M062X ExCW=0 ScaHFX=  0.540000
 ScaDFX=  1.000000  1.000000  1.000000  1.000000 ScalE2=  1.000000  1.000000
 IRadAn=      5 IRanWt=     -1 IRanGd=            0 ICorTp=0 IEmpDi=  4
 NAtoms=    4 NActive=    4 NUniq=    4 SFac= 1.00D+00 NAtFMM=   60 NAOKFM=F Big=F
 Integral buffers will be    131072 words long.
 Raffenetti 2 integral format.
 Two-electron integral symmetry is turned on.
 Leave Link  301 at Sun Apr 18 03:56:22 2021, MaxMem=   104857600 cpu:               6.2 elap:               0.2
 (Enter /s/ls4/users/knvvv/bin/g16sse/l302.exe)
 NPDir=0 NMtPBC=     1 NCelOv=     1 NCel=       1 NClECP=     1 NCelD=      1
         NCelK=      1 NCelE2=     1 NClLst=     1 CellRange=     0.0.
 One-electron integrals computed using PRISM.
 One-electron integral symmetry used in STVInt
 PrsmSu:  requested number of processors reduced to:   4 ShMem   1 Linda.
 PrsmSu:  requested number of processors reduced to:  21 ShMem   1 Linda.
   2 Symmetry operations used in ECPInt.
 ECPInt:  NShTT=    1891 NPrTT=    5173 LenC2=    1872 LenP2D=    4443.
 LDataN:  DoStor=T MaxTD1= 8 Len=  415
 Number of processors reduced to  32 by ecpmxn.
 NBasis=   201 RedAO= T EigKep=  3.22D-04  NBF=   131    70
 NBsUse=   201 1.00D-06 EigRej= -1.00D+00 NBFU=   131    70
 Precomputing XC quadrature grid using
 IXCGrd= 4 IRadAn=           5 IRanWt=          -1 IRanGd=           0 AccXCQ= 0.00D+00.
 Generated NRdTot=       0 NPtTot=           0 NUsed=           0 NTot=          32
 NSgBfM=   251   251   251   251   251 MxSgAt=     4 MxSgA2=     4.
 Leave Link  302 at Sun Apr 18 03:56:30 2021, MaxMem=   104857600 cpu:             329.6 elap:               7.1
 (Enter /s/ls4/users/knvvv/bin/g16sse/l303.exe)
 DipDrv:  MaxL=1.
 Leave Link  303 at Sun Apr 18 03:56:31 2021, MaxMem=   104857600 cpu:              51.6 elap:               1.1
 (Enter /s/ls4/users/knvvv/bin/g16sse/l401.exe)
 SCF N**3 symmetry information disabled.
 ExpMin= 8.03D-02 ExpMax= 1.17D+05 ExpMxC= 1.13D+03 IAcc=3 IRadAn=         5 AccDes= 0.00D+00
 Harris functional with IExCor= 1009 and IRadAn=       5 diagonalized for initial guess.
 HarFok:  IExCor= 1009 AccDes= 0.00D+00 IRadAn=         5 IDoV= 1 UseB2=F ITyADJ=14
 ICtDFT=  3500011 ScaDFX=  1.000000  1.000000  1.000000  1.000000
 FoFCou: FMM=F IPFlag=           0 FMFlag=      100000 FMFlg1=           0
         NFxFlg=           0 DoJE=T BraDBF=F KetDBF=T FulRan=T
         wScrn=  0.000000 ICntrl=       500 IOpCl=  0 I1Cent=   200000004 NGrid=           0
         NMat0=    1 NMatS0=      1 NMatT0=    0 NMatD0=    1 NMtDS0=    0 NMtDT0=    0
 Petite list used in FoFCou.
 CoulSu:  requested number of processors reduced to:  21 ShMem   1 Linda.
 CoulSu:  requested number of processors reduced to:  21 ShMem   1 Linda.
 CoulSu:  requested number of processors reduced to:  21 ShMem   1 Linda.
 CoulSu:  requested number of processors reduced to:  21 ShMem   1 Linda.
 Harris En= -225.977764637979    
 JPrj=0 DoOrth=F DoCkMO=F.
 Initial guess orbital symmetries:
 Alpha Orbitals:
       Occupied  (A') (A') (A') (A') (A') (A') (A') (A') (A") (A')
                 (A") (A') (A")
       Virtual   (A') (A') (A') (A') (A') (A") (A') (A') (A') (A")
                 (A") (A') (A') (A") (A') (A') (A') (A') (A") (A')
                 (A') (A") (A') (A") (A') (A') (A') (A") (A") (A')
                 (A') (A") (A') (A') (A") (A') (A') (A") (A") (A')
                 (A') (A') (A") (A') (A') (A") (A') (A') (A') (A")
                 (A') (A") (A') (A") (A') (A') (A") (A') (A') (A")
                 (A') (A') (A') (A") (A') (A') (A") (A") (A") (A')
                 (A') (A") (A") (A') (A') (A") (A') (A') (A") (A')
                 (A') (A") (A') (A') (A") (A') (A") (A') (A') (A')
                 (A") (A') (A") (A') (A') (A") (A') (A') (A") (A')
                 (A') (A") (A') (A') (A") (A') (A') (A') (A") (A')
                 (A") (A') (A") (A') (A") (A') (A') (A") (A") (A")
                 (A') (A') (A') (A') (A") (A') (A") (A') (A") (A')
                 (A') (A") (A') (A") (A") (A') (A') (A') (A") (A")
                 (A') (A") (A") (A') (A') (A") (A') (A') (A") (A')
                 (A') (A') (A') (A") (A") (A') (A") (A") (A') (A')
                 (A") (A') (A') (A") (A") (A') (A") (A') (A") (A')
                 (A') (A') (A') (A") (A') (A") (A') (A') (A') (A')
                 (A') (A') (A') (A') (A') (A') (A') (A')
 Beta  Orbitals:
       Occupied  (A') (A') (A') (A') (A') (A') (A') (A') (A") (A')
                 (A") (A')
       Virtual   (A") (A') (A') (A') (A') (A') (A") (A') (A') (A')
                 (A") (A") (A') (A') (A") (A') (A') (A') (A') (A")
                 (A') (A') (A") (A') (A") (A') (A') (A') (A") (A")
                 (A') (A') (A") (A') (A') (A") (A') (A') (A") (A")
                 (A') (A') (A') (A") (A') (A') (A") (A') (A') (A')
                 (A") (A') (A") (A') (A") (A') (A') (A") (A') (A')
                 (A") (A') (A') (A') (A") (A') (A') (A") (A") (A")
                 (A') (A') (A") (A") (A') (A') (A") (A') (A') (A")
                 (A') (A') (A") (A') (A') (A") (A') (A") (A') (A')
                 (A') (A") (A') (A") (A') (A') (A") (A') (A') (A")
                 (A') (A') (A") (A') (A') (A") (A') (A') (A') (A")
                 (A') (A") (A') (A") (A') (A") (A') (A') (A") (A")
                 (A") (A') (A') (A') (A') (A") (A') (A") (A') (A")
                 (A') (A') (A") (A') (A") (A") (A') (A') (A') (A")
                 (A") (A') (A") (A") (A') (A') (A") (A') (A') (A")
                 (A') (A') (A') (A') (A") (A") (A') (A") (A") (A')
                 (A') (A") (A') (A') (A") (A") (A') (A") (A') (A")
                 (A') (A') (A') (A') (A") (A') (A") (A') (A') (A')
                 (A') (A') (A') (A') (A') (A') (A') (A') (A')
 The electronic state of the initial guess is 2-A".
 Initial guess <Sx>= 0.0000 <Sy>= 0.0000 <Sz>= 0.5000 <S**2>= 0.7500 S= 0.5000
 Leave Link  401 at Sun Apr 18 03:56:34 2021, MaxMem=   104857600 cpu:             150.1 elap:               3.4
 (Enter /s/ls4/users/knvvv/bin/g16sse/l502.exe)
 Integral symmetry usage will be decided dynamically.
 UHF open shell SCF:
 Using DIIS extrapolation, IDIIS=  1040.
 NGot=   104857600 LenX=   104716989 LenY=   104653547
 Requested convergence on RMS density matrix=1.00D-08 within 128 cycles.
 Requested convergence on MAX density matrix=1.00D-06.
 Requested convergence on             energy=1.00D-06.
 No special actions if energy rises.
 Fock matrices will be formed incrementally for  20 cycles.
 Integral accuracy reduced to 1.0D-05 until final iterations.

 Cycle   1  Pass 0  IDiag  1:
 FoFJK:  IHMeth= 1 ICntrl=       0 DoSepK=F KAlg= 0 I1Cent=           0 FoldK=F
 IRaf= 980000000 NMat=       1 IRICut=       1 DoRegI=T DoRafI=F ISym2E= 1 IDoP0=0 IntGTp=1.
 FoFCou: FMM=F IPFlag=           0 FMFlag=      100000 FMFlg1=           0
         NFxFlg=           0 DoJE=F BraDBF=F KetDBF=F FulRan=T
         wScrn=  0.000000 ICntrl=         0 IOpCl=  1 I1Cent=           0 NGrid=           0
         NMat0=    1 NMatS0=      1 NMatT0=    0 NMatD0=    1 NMtDS0=    0 NMtDT0=    0
 Petite list used in FoFCou.
 CoulSu:  requested number of processors reduced to:  20 ShMem   1 Linda.
 E= -225.975815491119    
 DIIS: error= 3.68D-02 at cycle   1 NSaved=   1.
 NSaved= 1 IEnMin= 1 EnMin= -225.975815491119     IErMin= 1 ErrMin= 3.68D-02
 ErrMax= 3.68D-02  0.00D+00 EMaxC= 1.00D-01 BMatC= 9.48D-01 BMatP= 9.48D-01
 IDIUse=3 WtCom= 6.32D-01 WtEn= 3.68D-01
 Coeff-Com:  0.100D+01
 Coeff-En:   0.100D+01
 Coeff:      0.100D+01
 Gap=     0.388 Goal=   None    Shift=    0.000
 Gap=     0.214 Goal=   None    Shift=    0.000
 GapD=    0.214 DampG=1.000 DampE=0.500 DampFc=0.5000 IDamp=-1.
 Damping current iteration by 5.00D-01
 RMSDP=1.63D-03 MaxDP=4.68D-02              OVMax= 2.17D-01

 Cycle   2  Pass 0  IDiag  1:
 RMSU=  8.16D-04    CP:  9.99D-01
 CoulSu:  requested number of processors reduced to:  20 ShMem   1 Linda.
 E= -225.999427678943     Delta-E=       -0.023612187824 Rises=F Damp=T
 DIIS: error= 1.65D-02 at cycle   2 NSaved=   2.
 NSaved= 2 IEnMin= 2 EnMin= -225.999427678943     IErMin= 2 ErrMin= 1.65D-02
 ErrMax= 1.65D-02  0.00D+00 EMaxC= 1.00D-01 BMatC= 2.01D-01 BMatP= 9.48D-01
 IDIUse=3 WtCom= 8.35D-01 WtEn= 1.65D-01
 Coeff-Com:  0.127D+00 0.873D+00
 Coeff-En:   0.371D+00 0.629D+00
 Coeff:      0.167D+00 0.833D+00
 Gap=     0.410 Goal=   None    Shift=    0.000
 Gap=     0.340 Goal=   None    Shift=    0.000
 RMSDP=4.97D-04 MaxDP=1.63D-02 DE=-2.36D-02 OVMax= 1.65D-01

 Cycle   3  Pass 0  IDiag  1:
 RMSU=  4.45D-04    CP:  1.00D+00  7.33D-01
 CoulSu:  requested number of processors reduced to:  20 ShMem   1 Linda.
 E= -226.067826589215     Delta-E=       -0.068398910272 Rises=F Damp=F
 DIIS: error= 7.37D-03 at cycle   3 NSaved=   3.
 NSaved= 3 IEnMin= 3 EnMin= -226.067826589215     IErMin= 3 ErrMin= 7.37D-03
 ErrMax= 7.37D-03  0.00D+00 EMaxC= 1.00D-01 BMatC= 3.90D-02 BMatP= 2.01D-01
 IDIUse=3 WtCom= 9.26D-01 WtEn= 7.37D-02
 Coeff-Com: -0.112D+00 0.283D+00 0.829D+00
 Coeff-En:   0.000D+00 0.000D+00 0.100D+01
 Coeff:     -0.104D+00 0.262D+00 0.842D+00
 Gap=     0.376 Goal=   None    Shift=    0.000
 Gap=     0.302 Goal=   None    Shift=    0.000
 RMSDP=2.79D-04 MaxDP=9.02D-03 DE=-6.84D-02 OVMax= 4.82D-02

 Cycle   4  Pass 0  IDiag  1:
 RMSU=  2.10D-04    CP:  9.99D-01  9.46D-01  9.02D-01
 CoulSu:  requested number of processors reduced to:  20 ShMem   1 Linda.
 E= -226.074708991433     Delta-E=       -0.006882402218 Rises=F Damp=F
 DIIS: error= 3.45D-03 at cycle   4 NSaved=   4.
 NSaved= 4 IEnMin= 4 EnMin= -226.074708991433     IErMin= 4 ErrMin= 3.45D-03
 ErrMax= 3.45D-03  0.00D+00 EMaxC= 1.00D-01 BMatC= 4.11D-03 BMatP= 3.90D-02
 IDIUse=3 WtCom= 9.65D-01 WtEn= 3.45D-02
 Coeff-Com: -0.335D-01 0.673D-01 0.349D+00 0.617D+00
 Coeff-En:   0.000D+00 0.000D+00 0.000D+00 0.100D+01
 Coeff:     -0.323D-01 0.650D-01 0.337D+00 0.630D+00
 Gap=     0.370 Goal=   None    Shift=    0.000
 Gap=     0.307 Goal=   None    Shift=    0.000
 RMSDP=9.18D-05 MaxDP=3.42D-03 DE=-6.88D-03 OVMax= 2.52D-02

 Cycle   5  Pass 0  IDiag  1:
 RMSU=  7.29D-05    CP:  1.00D+00  9.25D-01  1.00D+00  8.65D-01
 CoulSu:  requested number of processors reduced to:  20 ShMem   1 Linda.
 E= -226.075479503805     Delta-E=       -0.000770512372 Rises=F Damp=F
 DIIS: error= 1.34D-03 at cycle   5 NSaved=   5.
 NSaved= 5 IEnMin= 5 EnMin= -226.075479503805     IErMin= 5 ErrMin= 1.34D-03
 ErrMax= 1.34D-03  0.00D+00 EMaxC= 1.00D-01 BMatC= 1.26D-03 BMatP= 4.11D-03
 IDIUse=3 WtCom= 9.87D-01 WtEn= 1.34D-02
 Coeff-Com: -0.366D-02-0.479D-03 0.112D+00 0.397D+00 0.495D+00
 Coeff-En:   0.000D+00 0.000D+00 0.000D+00 0.000D+00 0.100D+01
 Coeff:     -0.361D-02-0.472D-03 0.111D+00 0.392D+00 0.502D+00
 Gap=     0.373 Goal=   None    Shift=    0.000
 Gap=     0.308 Goal=   None    Shift=    0.000
 RMSDP=4.87D-05 MaxDP=1.38D-03 DE=-7.71D-04 OVMax= 1.02D-02

 Cycle   6  Pass 0  IDiag  1:
 RMSU=  3.59D-05    CP:  9.99D-01  9.35D-01  1.01D+00  1.01D+00  9.24D-01
 CoulSu:  requested number of processors reduced to:  20 ShMem   1 Linda.
 E= -226.075785451532     Delta-E=       -0.000305947728 Rises=F Damp=F
 DIIS: error= 1.15D-03 at cycle   6 NSaved=   6.
 NSaved= 6 IEnMin= 6 EnMin= -226.075785451532     IErMin= 6 ErrMin= 1.15D-03
 ErrMax= 1.15D-03  0.00D+00 EMaxC= 1.00D-01 BMatC= 1.47D-04 BMatP= 1.26D-03
 IDIUse=3 WtCom= 9.89D-01 WtEn= 1.15D-02
 Coeff-Com:  0.165D-01-0.333D-01-0.110D+00-0.205D+00-0.223D-01 0.135D+01
 Coeff-En:   0.000D+00 0.000D+00 0.000D+00 0.000D+00 0.000D+00 0.100D+01
 Coeff:      0.163D-01-0.329D-01-0.109D+00-0.203D+00-0.220D-01 0.135D+01
 Gap=     0.374 Goal=   None    Shift=    0.000
 Gap=     0.311 Goal=   None    Shift=    0.000
 RMSDP=6.10D-05 MaxDP=2.10D-03 DE=-3.06D-04 OVMax= 1.87D-02

 Cycle   7  Pass 0  IDiag  1:
 RMSU=  1.79D-05    CP:  9.99D-01  9.41D-01  1.06D+00  1.17D+00  1.40D+00
                    CP:  1.66D+00
 CoulSu:  requested number of processors reduced to:  20 ShMem   1 Linda.
 E= -226.075967387703     Delta-E=       -0.000181936170 Rises=F Damp=F
 DIIS: error= 2.97D-04 at cycle   7 NSaved=   7.
 NSaved= 7 IEnMin= 7 EnMin= -226.075967387703     IErMin= 7 ErrMin= 2.97D-04
 ErrMax= 2.97D-04  0.00D+00 EMaxC= 1.00D-01 BMatC= 4.61D-05 BMatP= 1.47D-04
 IDIUse=3 WtCom= 9.97D-01 WtEn= 2.97D-03
 Coeff-Com:  0.467D-02-0.728D-02-0.272D-01-0.959D-01-0.144D+00 0.335D+00
 Coeff-Com:  0.935D+00
 Coeff-En:   0.000D+00 0.000D+00 0.000D+00 0.000D+00 0.000D+00 0.000D+00
 Coeff-En:   0.100D+01
 Coeff:      0.465D-02-0.725D-02-0.271D-01-0.956D-01-0.143D+00 0.334D+00
 Coeff:      0.935D+00
 Gap=     0.374 Goal=   None    Shift=    0.000
 Gap=     0.311 Goal=   None    Shift=    0.000
 RMSDP=2.29D-05 MaxDP=6.84D-04 DE=-1.82D-04 OVMax= 5.48D-03

 Cycle   8  Pass 0  IDiag  1:
 RMSU=  7.62D-06    CP:  9.99D-01  9.41D-01  1.07D+00  1.21D+00  1.55D+00
                    CP:  2.06D+00  1.41D+00
 CoulSu:  requested number of processors reduced to:  20 ShMem   1 Linda.
 E= -226.076000561712     Delta-E=       -0.000033174009 Rises=F Damp=F
 DIIS: error= 1.16D-04 at cycle   8 NSaved=   8.
 NSaved= 8 IEnMin= 8 EnMin= -226.076000561712     IErMin= 8 ErrMin= 1.16D-04
 ErrMax= 1.16D-04  0.00D+00 EMaxC= 1.00D-01 BMatC= 9.96D-06 BMatP= 4.61D-05
 IDIUse=3 WtCom= 9.99D-01 WtEn= 1.16D-03
 Coeff-Com: -0.436D-02 0.871D-02 0.374D-01 0.773D-01-0.292D-01-0.408D+00
 Coeff-Com: -0.772D-01 0.140D+01
 Coeff-En:   0.000D+00 0.000D+00 0.000D+00 0.000D+00 0.000D+00 0.000D+00
 Coeff-En:   0.000D+00 0.100D+01
 Coeff:     -0.436D-02 0.870D-02 0.374D-01 0.772D-01-0.291D-01-0.408D+00
 Coeff:     -0.771D-01 0.140D+01
 Gap=     0.375 Goal=   None    Shift=    0.000
 Gap=     0.311 Goal=   None    Shift=    0.000
 RMSDP=1.97D-05 MaxDP=5.07D-04 DE=-3.32D-05 OVMax= 4.13D-03

 Cycle   9  Pass 0  IDiag  1:
 RMSU=  4.01D-06    CP:  9.99D-01  9.41D-01  1.08D+00  1.24D+00  1.64D+00
                    CP:  2.33D+00  2.05D+00  1.94D+00
 CoulSu:  requested number of processors reduced to:  20 ShMem   1 Linda.
 E= -226.076013827081     Delta-E=       -0.000013265369 Rises=F Damp=F
 DIIS: error= 4.13D-05 at cycle   9 NSaved=   9.
 NSaved= 9 IEnMin= 9 EnMin= -226.076013827081     IErMin= 9 ErrMin= 4.13D-05
 ErrMax= 4.13D-05  0.00D+00 EMaxC= 1.00D-01 BMatC= 1.34D-06 BMatP= 9.96D-06
 IDIUse=1 WtCom= 1.00D+00 WtEn= 0.00D+00
 Coeff-Com:  0.226D-03-0.570D-03-0.507D-02-0.202D-02 0.167D-01 0.471D-01
 Coeff-Com: -0.893D-01-0.328D+00 0.136D+01
 Coeff:      0.226D-03-0.570D-03-0.507D-02-0.202D-02 0.167D-01 0.471D-01
 Coeff:     -0.893D-01-0.328D+00 0.136D+01
 Gap=     0.375 Goal=   None    Shift=    0.000
 Gap=     0.311 Goal=   None    Shift=    0.000
 RMSDP=8.05D-06 MaxDP=1.94D-04 DE=-1.33D-05 OVMax= 1.70D-03

 Initial convergence to 1.0D-05 achieved.  Increase integral accuracy.
 Cycle  10  Pass 1  IDiag  1:
 CoulSu:  requested number of processors reduced to:  20 ShMem   1 Linda.
 E= -226.076022516893     Delta-E=       -0.000008689812 Rises=F Damp=F
 DIIS: error= 4.30D-05 at cycle   1 NSaved=   1.
 NSaved= 1 IEnMin= 1 EnMin= -226.076022516893     IErMin= 1 ErrMin= 4.30D-05
 ErrMax= 4.30D-05  0.00D+00 EMaxC= 1.00D-01 BMatC= 1.98D-06 BMatP= 1.98D-06
 IDIUse=1 WtCom= 1.00D+00 WtEn= 0.00D+00
 Coeff-Com:  0.100D+01
 Coeff:      0.100D+01
 Gap=     0.375 Goal=   None    Shift=    0.000
 Gap=     0.311 Goal=   None    Shift=    0.000
 RMSDP=8.05D-06 MaxDP=1.94D-04 DE=-8.69D-06 OVMax= 5.82D-04

 Cycle  11  Pass 1  IDiag  1:
 RMSU=  6.16D-06    CP:  1.00D+00
 CoulSu:  requested number of processors reduced to:  20 ShMem   1 Linda.
 E= -226.076023184910     Delta-E=       -0.000000668017 Rises=F Damp=F
 DIIS: error= 2.02D-05 at cycle   2 NSaved=   2.
 NSaved= 2 IEnMin= 2 EnMin= -226.076023184910     IErMin= 2 ErrMin= 2.02D-05
 ErrMax= 2.02D-05  0.00D+00 EMaxC= 1.00D-01 BMatC= 2.69D-07 BMatP= 1.98D-06
 IDIUse=1 WtCom= 1.00D+00 WtEn= 0.00D+00
 Coeff-Com: -0.472D-01 0.105D+01
 Coeff:     -0.472D-01 0.105D+01
 Gap=     0.375 Goal=   None    Shift=    0.000
 Gap=     0.311 Goal=   None    Shift=    0.000
 RMSDP=2.01D-06 MaxDP=5.43D-05 DE=-6.68D-07 OVMax= 3.96D-04

 Cycle  12  Pass 1  IDiag  1:
 RMSU=  1.68D-06    CP:  1.00D+00  1.18D+00
 CoulSu:  requested number of processors reduced to:  20 ShMem   1 Linda.
 E= -226.076023484449     Delta-E=       -0.000000299539 Rises=F Damp=F
 DIIS: error= 2.21D-05 at cycle   3 NSaved=   3.
 NSaved= 3 IEnMin= 3 EnMin= -226.076023484449     IErMin= 2 ErrMin= 2.02D-05
 ErrMax= 2.21D-05  0.00D+00 EMaxC= 1.00D-01 BMatC= 3.00D-07 BMatP= 2.69D-07
 IDIUse=1 WtCom= 1.00D+00 WtEn= 0.00D+00
 Coeff-Com: -0.874D-01 0.597D+00 0.490D+00
 Coeff:     -0.874D-01 0.597D+00 0.490D+00
 Gap=     0.375 Goal=   None    Shift=    0.000
 Gap=     0.311 Goal=   None    Shift=    0.000
 RMSDP=9.11D-07 MaxDP=2.85D-05 DE=-3.00D-07 OVMax= 2.12D-04

 Cycle  13  Pass 1  IDiag  1:
 RMSU=  6.55D-07    CP:  1.00D+00  1.22D+00  1.34D+00
 CoulSu:  requested number of processors reduced to:  20 ShMem   1 Linda.
 E= -226.076023612446     Delta-E=       -0.000000127997 Rises=F Damp=F
 DIIS: error= 1.12D-05 at cycle   4 NSaved=   4.
 NSaved= 4 IEnMin= 4 EnMin= -226.076023612446     IErMin= 4 ErrMin= 1.12D-05
 ErrMax= 1.12D-05  0.00D+00 EMaxC= 1.00D-01 BMatC= 1.05D-07 BMatP= 2.69D-07
 IDIUse=1 WtCom= 1.00D+00 WtEn= 0.00D+00
 Coeff-Com:  0.583D-01-0.138D+01-0.737D-01 0.240D+01
 Coeff:      0.583D-01-0.138D+01-0.737D-01 0.240D+01
 Gap=     0.375 Goal=   None    Shift=    0.000
 Gap=     0.311 Goal=   None    Shift=    0.000
 RMSDP=3.82D-06 MaxDP=1.00D-04 DE=-1.28D-07 OVMax= 8.52D-04

 Cycle  14  Pass 1  IDiag  1:
 RMSU=  7.08D-07    CP:  1.00D+00  1.47D+00  3.00D+00  2.66D+00
 CoulSu:  requested number of processors reduced to:  20 ShMem   1 Linda.
 E= -226.076023909530     Delta-E=       -0.000000297084 Rises=F Damp=F
 DIIS: error= 3.56D-06 at cycle   5 NSaved=   5.
 NSaved= 5 IEnMin= 5 EnMin= -226.076023909530     IErMin= 5 ErrMin= 3.56D-06
 ErrMax= 3.56D-06  0.00D+00 EMaxC= 1.00D-01 BMatC= 9.72D-09 BMatP= 1.05D-07
 IDIUse=1 WtCom= 1.00D+00 WtEn= 0.00D+00
 Coeff-Com:  0.282D-01-0.395D+00-0.994D-01 0.460D+00 0.101D+01
 Coeff:      0.282D-01-0.395D+00-0.994D-01 0.460D+00 0.101D+01
 Gap=     0.375 Goal=   None    Shift=    0.000
 Gap=     0.311 Goal=   None    Shift=    0.000
 RMSDP=1.07D-06 MaxDP=2.91D-05 DE=-2.97D-07 OVMax= 2.32D-04

 Cycle  15  Pass 1  IDiag  1:
 RMSU=  5.25D-07    CP:  1.00D+00  1.53D+00  3.00D+00  3.00D+00  2.11D+00
 CoulSu:  requested number of processors reduced to:  20 ShMem   1 Linda.
 E= -226.076023929917     Delta-E=       -0.000000020387 Rises=F Damp=F
 DIIS: error= 2.37D-06 at cycle   6 NSaved=   6.
 NSaved= 6 IEnMin= 6 EnMin= -226.076023929917     IErMin= 6 ErrMin= 2.37D-06
 ErrMax= 2.37D-06  0.00D+00 EMaxC= 1.00D-01 BMatC= 1.66D-09 BMatP= 9.72D-09
 IDIUse=1 WtCom= 1.00D+00 WtEn= 0.00D+00
 Coeff-Com: -0.603D-02 0.152D+00 0.427D-01-0.314D+00 0.613D-01 0.106D+01
 Coeff:     -0.603D-02 0.152D+00 0.427D-01-0.314D+00 0.613D-01 0.106D+01
 Gap=     0.375 Goal=   None    Shift=    0.000
 Gap=     0.311 Goal=   None    Shift=    0.000
 RMSDP=1.91D-07 MaxDP=4.56D-06 DE=-2.04D-08 OVMax= 4.12D-05

 Cycle  16  Pass 1  IDiag  1:
 RMSU=  9.78D-08    CP:  1.00D+00  1.54D+00  3.00D+00  3.00D+00  2.32D+00
                    CP:  1.09D+00
 CoulSu:  requested number of processors reduced to:  20 ShMem   1 Linda.
 E= -226.076023931384     Delta-E=       -0.000000001467 Rises=F Damp=F
 DIIS: error= 1.07D-06 at cycle   7 NSaved=   7.
 NSaved= 7 IEnMin= 7 EnMin= -226.076023931384     IErMin= 7 ErrMin= 1.07D-06
 ErrMax= 1.07D-06  0.00D+00 EMaxC= 1.00D-01 BMatC= 6.72D-10 BMatP= 1.66D-09
 IDIUse=1 WtCom= 1.00D+00 WtEn= 0.00D+00
 Coeff-Com: -0.700D-02 0.124D+00 0.524D-01-0.222D+00-0.135D+00 0.384D+00
 Coeff-Com:  0.803D+00
 Coeff:     -0.700D-02 0.124D+00 0.524D-01-0.222D+00-0.135D+00 0.384D+00
 Coeff:      0.803D+00
 Gap=     0.375 Goal=   None    Shift=    0.000
 Gap=     0.311 Goal=   None    Shift=    0.000
 RMSDP=8.00D-08 MaxDP=2.46D-06 DE=-1.47D-09 OVMax= 1.93D-05

 Cycle  17  Pass 1  IDiag  1:
 RMSU=  4.50D-08    CP:  1.00D+00  1.54D+00  3.00D+00  3.00D+00  2.38D+00
                    CP:  1.11D+00  1.43D+00
 CoulSu:  requested number of processors reduced to:  20 ShMem   1 Linda.
 E= -226.076023931743     Delta-E=       -0.000000000359 Rises=F Damp=F
 DIIS: error= 8.54D-07 at cycle   8 NSaved=   8.
 NSaved= 8 IEnMin= 8 EnMin= -226.076023931743     IErMin= 8 ErrMin= 8.54D-07
 ErrMax= 8.54D-07  0.00D+00 EMaxC= 1.00D-01 BMatC= 3.30D-10 BMatP= 6.72D-10
 IDIUse=1 WtCom= 1.00D+00 WtEn= 0.00D+00
 Coeff-Com: -0.242D-02 0.197D-01 0.281D-01-0.303D-01-0.106D+00-0.209D+00
 Coeff-Com:  0.498D+00 0.801D+00
 Coeff:     -0.242D-02 0.197D-01 0.281D-01-0.303D-01-0.106D+00-0.209D+00
 Coeff:      0.498D+00 0.801D+00
 Gap=     0.375 Goal=   None    Shift=    0.000
 Gap=     0.311 Goal=   None    Shift=    0.000
 RMSDP=5.21D-08 MaxDP=1.77D-06 DE=-3.59D-10 OVMax= 1.50D-05

 Cycle  18  Pass 1  IDiag  1:
 RMSU=  2.19D-08    CP:  1.00D+00  1.55D+00  3.00D+00  3.00D+00  2.41D+00
                    CP:  1.12D+00  1.84D+00  1.17D+00
 CoulSu:  requested number of processors reduced to:  20 ShMem   1 Linda.
 E= -226.076023931898     Delta-E=       -0.000000000155 Rises=F Damp=F
 DIIS: error= 2.66D-07 at cycle   9 NSaved=   9.
 NSaved= 9 IEnMin= 9 EnMin= -226.076023931898     IErMin= 9 ErrMin= 2.66D-07
 ErrMax= 2.66D-07  0.00D+00 EMaxC= 1.00D-01 BMatC= 4.92D-11 BMatP= 3.30D-10
 IDIUse=1 WtCom= 1.00D+00 WtEn= 0.00D+00
 Coeff-Com:  0.115D-02-0.282D-01 0.194D-02 0.441D-01 0.339D-03-0.192D+00
 Coeff-Com: -0.148D-01 0.345D+00 0.842D+00
 Coeff:      0.115D-02-0.282D-01 0.194D-02 0.441D-01 0.339D-03-0.192D+00
 Coeff:     -0.148D-01 0.345D+00 0.842D+00
 Gap=     0.375 Goal=   None    Shift=    0.000
 Gap=     0.311 Goal=   None    Shift=    0.000
 RMSDP=2.41D-08 MaxDP=8.49D-07 DE=-1.55D-10 OVMax= 4.89D-06

 Cycle  19  Pass 1  IDiag  1:
 RMSU=  1.00D-08    CP:  1.00D+00  1.55D+00  3.00D+00  3.00D+00  2.43D+00
                    CP:  1.13D+00  2.00D+00  1.39D+00  1.16D+00
 CoulSu:  requested number of processors reduced to:  20 ShMem   1 Linda.
 E= -226.076023931921     Delta-E=       -0.000000000023 Rises=F Damp=F
 DIIS: error= 1.04D-07 at cycle  10 NSaved=  10.
 NSaved=10 IEnMin=10 EnMin= -226.076023931921     IErMin=10 ErrMin= 1.04D-07
 ErrMax= 1.04D-07  0.00D+00 EMaxC= 1.00D-01 BMatC= 4.10D-12 BMatP= 4.92D-11
 IDIUse=1 WtCom= 1.00D+00 WtEn= 0.00D+00
 Coeff-Com:  0.117D-03 0.250D-02-0.179D-02-0.707D-02 0.152D-01 0.663D-01
 Coeff-Com: -0.720D-01-0.191D+00-0.144D+00 0.133D+01
 Coeff:      0.117D-03 0.250D-02-0.179D-02-0.707D-02 0.152D-01 0.663D-01
 Coeff:     -0.720D-01-0.191D+00-0.144D+00 0.133D+01
 Gap=     0.375 Goal=   None    Shift=    0.000
 Gap=     0.311 Goal=   None    Shift=    0.000
 RMSDP=9.34D-09 MaxDP=3.50D-07 DE=-2.32D-11 OVMax= 1.85D-06

 SCF Done:  E(UM062X) =  -226.076023932     A.U. after   19 cycles
            NFock= 19  Conv=0.93D-08     -V/T= 2.0035
 <Sx>= 0.0000 <Sy>= 0.0000 <Sz>= 0.5000 <S**2>= 0.7605 S= 0.5052
 <L.S>= 0.000000000000E+00
 KE= 2.252982700365D+02 PE=-6.797952456726D+02 EE= 1.557472965277D+02
 Annihilation of the first spin contaminant:
 S**2 before annihilation     0.7605,   after     0.7501
 Leave Link  502 at Sun Apr 18 03:57:15 2021, MaxMem=   104857600 cpu:            1456.1 elap:              41.1
 (Enter /s/ls4/users/knvvv/bin/g16sse/l601.exe)
 Copying SCF densities to generalized density rwf, IOpCl= 1 IROHF=0.

 **********************************************************************

            Population analysis using the SCF density.

 **********************************************************************

 Orbital symmetries:
 Alpha Orbitals:
       Occupied  (A') (A') (A') (A') (A') (A') (A") (A') (A') (A')
                 (A") (A') (A")
       Virtual   (A') (A') (A') (A') (A") (A') (A') (A') (A") (A')
                 (A") (A') (A') (A") (A') (A') (A') (A') (A") (A')
                 (A') (A") (A') (A") (A') (A') (A') (A") (A') (A")
                 (A') (A") (A') (A") (A') (A') (A') (A") (A") (A')
                 (A') (A') (A") (A') (A') (A") (A') (A') (A') (A")
                 (A') (A") (A') (A") (A') (A') (A") (A') (A") (A')
                 (A') (A') (A') (A") (A') (A') (A") (A") (A") (A')
                 (A') (A") (A") (A') (A') (A") (A') (A') (A") (A')
                 (A') (A") (A') (A') (A") (A') (A") (A') (A') (A')
                 (A") (A') (A') (A") (A') (A") (A') (A') (A") (A')
                 (A') (A") (A') (A') (A") (A') (A') (A') (A") (A")
                 (A') (A') (A") (A') (A") (A') (A') (A") (A") (A")
                 (A') (A') (A') (A') (A") (A') (A") (A') (A") (A')
                 (A') (A") (A') (A") (A") (A') (A') (A') (A") (A')
                 (A") (A") (A") (A') (A') (A') (A") (A') (A") (A')
                 (A') (A') (A") (A") (A') (A') (A") (A") (A') (A')
                 (A") (A') (A') (A") (A") (A') (A") (A') (A") (A')
                 (A') (A') (A') (A") (A') (A") (A') (A') (A') (A')
                 (A') (A') (A') (A') (A') (A') (A') (A')
 Beta  Orbitals:
       Occupied  (A') (A') (A') (A') (A') (A') (A') (A') (A") (A')
                 (A") (A')
       Virtual   (A") (A') (A') (A') (A') (A") (A') (A') (A') (A")
                 (A') (A") (A') (A') (A") (A') (A') (A') (A') (A")
                 (A') (A') (A") (A') (A") (A') (A') (A') (A") (A')
                 (A") (A') (A") (A') (A') (A") (A') (A') (A") (A")
                 (A') (A') (A') (A") (A') (A') (A") (A') (A') (A')
                 (A") (A') (A") (A') (A") (A') (A') (A") (A') (A')
                 (A") (A') (A') (A') (A") (A') (A') (A") (A") (A")
                 (A') (A') (A") (A") (A') (A') (A") (A') (A') (A")
                 (A') (A') (A") (A') (A') (A") (A') (A") (A') (A')
                 (A') (A") (A') (A') (A") (A') (A") (A') (A') (A")
                 (A') (A') (A") (A') (A') (A") (A') (A') (A') (A")
                 (A") (A') (A') (A") (A') (A") (A') (A') (A") (A")
                 (A") (A') (A') (A') (A') (A") (A') (A") (A') (A")
                 (A') (A') (A") (A') (A") (A") (A') (A') (A') (A")
                 (A') (A") (A") (A") (A') (A') (A') (A") (A') (A")
                 (A') (A') (A') (A") (A') (A") (A') (A") (A") (A')
                 (A') (A") (A') (A') (A") (A") (A') (A") (A') (A")
                 (A') (A') (A') (A') (A") (A') (A") (A') (A') (A')
                 (A') (A') (A') (A') (A') (A') (A') (A') (A')
 The electronic state is 2-A".
 Alpha  occ. eigenvalues --  -19.85334 -19.75274 -19.71875  -1.43536  -1.17552
 Alpha  occ. eigenvalues --   -0.95683  -0.67392  -0.67195  -0.64115  -0.55040
 Alpha  occ. eigenvalues --   -0.47012  -0.41633  -0.38834
 Alpha virt. eigenvalues --   -0.01351   0.04836   0.16100   0.23627   0.24716
 Alpha virt. eigenvalues --    0.26624   0.27922   0.32610   0.33097   0.33370
 Alpha virt. eigenvalues --    0.35667   0.36852   0.40499   0.55725   0.56292
 Alpha virt. eigenvalues --    0.64357   0.72737   0.78787   0.85367   0.91583
 Alpha virt. eigenvalues --    0.98044   1.02585   1.08140   1.14662   1.18337
 Alpha virt. eigenvalues --    1.23188   1.27135   1.27508   1.30303   1.30901
 Alpha virt. eigenvalues --    1.34593   1.36268   1.37787   1.39658   1.39892
 Alpha virt. eigenvalues --    1.50683   1.61469   1.63947   1.76200   1.84238
 Alpha virt. eigenvalues --    1.87179   1.92374   2.03817   2.05226   2.11225
 Alpha virt. eigenvalues --    2.19241   2.21583   2.40926   2.53534   2.59088
 Alpha virt. eigenvalues --    2.63943   2.83203   2.85766   2.86490   2.92761
 Alpha virt. eigenvalues --    2.93592   2.99093   3.09589   3.14716   3.15136
 Alpha virt. eigenvalues --    3.27893   3.29469   3.41374   3.42596   3.48968
 Alpha virt. eigenvalues --    3.58339   3.71661   3.78247   3.81100   3.88290
 Alpha virt. eigenvalues --    3.90649   3.90908   3.92735   3.93700   4.04294
 Alpha virt. eigenvalues --    4.07342   4.11320   4.18772   4.19619   4.20799
 Alpha virt. eigenvalues --    4.25461   4.32487   4.36557   4.38443   4.48198
 Alpha virt. eigenvalues --    4.54027   4.57927   4.64139   4.75572   4.82440
 Alpha virt. eigenvalues --    4.87405   4.94870   5.11868   5.12459   5.25641
 Alpha virt. eigenvalues --    5.37590   5.48096   5.67522   5.72367   5.83224
 Alpha virt. eigenvalues --    6.02240   6.39354   6.53244   7.01317   7.03098
 Alpha virt. eigenvalues --    7.13483   7.20796   7.51490   7.57369   7.62864
 Alpha virt. eigenvalues --    7.70094   7.94157   8.06222   8.13623   8.19353
 Alpha virt. eigenvalues --    8.20263   8.33174   8.37722   8.39165   8.44165
 Alpha virt. eigenvalues --    8.48082   8.53188   8.55831   8.66048   8.72439
 Alpha virt. eigenvalues --    8.74012   8.88073   8.95153   9.13849   9.24602
 Alpha virt. eigenvalues --    9.44338   9.54756   9.91441   9.97204  10.04987
 Alpha virt. eigenvalues --   10.08696  10.24182  10.30438  10.45491  10.59843
 Alpha virt. eigenvalues --   10.60314  10.70870  10.75117  10.76514  10.84394
 Alpha virt. eigenvalues --   10.86778  10.88425  10.91162  11.00776  11.06241
 Alpha virt. eigenvalues --   11.15629  11.20706  11.25273  11.27768  11.29566
 Alpha virt. eigenvalues --   11.39643  11.44820  11.46946  11.52263  11.57436
 Alpha virt. eigenvalues --   11.66237  11.72378  11.74613  11.76322  11.83307
 Alpha virt. eigenvalues --   11.84240  11.90929  11.98773  12.04730  12.05579
 Alpha virt. eigenvalues --   12.44608  12.60209  12.73715  13.36890  13.49015
 Alpha virt. eigenvalues --   13.52741  13.53471  13.58002  13.80725  14.30470
 Alpha virt. eigenvalues --   15.07665  16.19391  47.33240  47.80008  48.19102
 Alpha virt. eigenvalues --  250.28352 250.80989 251.26516
  Beta  occ. eigenvalues --  -19.84147 -19.73834 -19.71897  -1.40131  -1.16750
  Beta  occ. eigenvalues --   -0.91148  -0.65139  -0.62279  -0.57690  -0.54345
  Beta  occ. eigenvalues --   -0.42965  -0.39519
  Beta virt. eigenvalues --   -0.08424  -0.00308   0.04941   0.16704   0.24210
  Beta virt. eigenvalues --    0.25502   0.26942   0.28025   0.33020   0.33385
  Beta virt. eigenvalues --    0.34563   0.36385   0.36879   0.40770   0.55723
  Beta virt. eigenvalues --    0.56578   0.64352   0.73153   0.78859   0.85876
  Beta virt. eigenvalues --    0.91771   0.98107   1.04206   1.08760   1.15938
  Beta virt. eigenvalues --    1.18689   1.23352   1.27456   1.28712   1.31347
  Beta virt. eigenvalues --    1.33167   1.34765   1.37351   1.37952   1.40556
  Beta virt. eigenvalues --    1.42429   1.50789   1.61791   1.64556   1.76856
  Beta virt. eigenvalues --    1.84420   1.87427   1.92603   2.03954   2.05381
  Beta virt. eigenvalues --    2.11040   2.19236   2.21727   2.41198   2.53566
  Beta virt. eigenvalues --    2.59052   2.64089   2.83500   2.85779   2.86563
  Beta virt. eigenvalues --    2.92718   2.94133   3.01308   3.09907   3.15261
  Beta virt. eigenvalues --    3.15542   3.27646   3.29925   3.42311   3.42700
  Beta virt. eigenvalues --    3.49541   3.58898   3.73341   3.79784   3.81865
  Beta virt. eigenvalues --    3.89001   3.91582   3.91762   3.94199   3.94677
  Beta virt. eigenvalues --    4.04875   4.07729   4.12229   4.19159   4.19737
  Beta virt. eigenvalues --    4.20959   4.25580   4.32751   4.36555   4.38572
  Beta virt. eigenvalues --    4.48029   4.53935   4.59502   4.63893   4.75480
  Beta virt. eigenvalues --    4.83085   4.92164   4.95375   5.11842   5.12766
  Beta virt. eigenvalues --    5.25825   5.41238   5.48035   5.67643   5.72384
  Beta virt. eigenvalues --    5.83006   6.02122   6.39257   6.53081   7.01148
  Beta virt. eigenvalues --    7.03086   7.13452   7.20609   7.52192   7.57353
  Beta virt. eigenvalues --    7.62835   7.69830   7.94061   8.06675   8.14068
  Beta virt. eigenvalues --    8.19592   8.20296   8.33911   8.37934   8.39211
  Beta virt. eigenvalues --    8.44873   8.47131   8.52786   8.56128   8.66424
  Beta virt. eigenvalues --    8.76354   8.78268   8.88619   8.95736   9.14100
  Beta virt. eigenvalues --    9.24293   9.44227   9.54844   9.90904   9.96779
  Beta virt. eigenvalues --   10.04718  10.08475  10.23893  10.30698  10.47029
  Beta virt. eigenvalues --   10.59165  10.60474  10.74991  10.81327  10.83241
  Beta virt. eigenvalues --   10.86205  10.89218  10.90616  10.92913  11.01738
  Beta virt. eigenvalues --   11.05783  11.18732  11.23938  11.29291  11.29609
  Beta virt. eigenvalues --   11.30563  11.39004  11.47059  11.49936  11.52120
  Beta virt. eigenvalues --   11.58935  11.70298  11.72826  11.74123  11.82682
  Beta virt. eigenvalues --   11.84621  11.91632  11.96992  12.00703  12.04662
  Beta virt. eigenvalues --   12.09710  12.44170  12.60159  12.73051  13.41625
  Beta virt. eigenvalues --   13.50877  13.52669  13.55672  13.58455  13.83904
  Beta virt. eigenvalues --   14.33962  15.07072  16.18989  47.35066  47.82211
  Beta virt. eigenvalues --   48.18295 250.26172 250.79321 251.25257
          Condensed to atoms (all electrons):
               1          2          3          4
     1  O    8.041642   0.140390  -0.068603   0.026117
     2  O    0.140390   7.635934   0.099815  -0.015600
     3  O   -0.068603   0.099815   7.981731   0.290093
     4  H    0.026117  -0.015600   0.290093   0.396270
          Atomic-Atomic Spin Densities.
               1          2          3          4
     1  O    0.794178  -0.171444   0.017077  -0.002608
     2  O   -0.171444   0.593829  -0.020172  -0.001975
     3  O    0.017077  -0.020172  -0.037323   0.003776
     4  H   -0.002608  -0.001975   0.003776   0.000009
 Mulliken charges and spin densities:
               1          2
     1  O   -0.139545   0.637203
     2  O    0.139461   0.400238
     3  O   -0.303036  -0.036643
     4  H    0.303121  -0.000798
 Sum of Mulliken charges =  -0.00000   1.00000
 Mulliken charges and spin densities with hydrogens summed into heavy atoms:
               1          2
     1  O   -0.139545   0.637203
     2  O    0.139461   0.400238
     3  O    0.000085  -0.037441
 Electronic spatial extent (au):  <R**2>=            130.7622
 Charge=             -0.0000 electrons
 Dipole moment (field-independent basis, Debye):
    X=              0.2040    Y=             -1.0876    Z=              0.0000  Tot=              1.1065
 Quadrupole moment (field-independent basis, Debye-Ang):
   XX=            -19.0685   YY=            -13.7535   ZZ=            -16.5064
   XY=              0.1017   XZ=              0.0000   YZ=             -0.0000
 Traceless Quadrupole moment (field-independent basis, Debye-Ang):
   XX=             -2.6257   YY=              2.6893   ZZ=             -0.0636
   XY=              0.1017   XZ=              0.0000   YZ=             -0.0000
 Octapole moment (field-independent basis, Debye-Ang**2):
  XXX=              1.5442  YYY=             -3.7461  ZZZ=             -0.0000  XYY=             -1.3279
  XXY=              0.4235  XXZ=             -0.0000  XZZ=              0.8650  YZZ=              0.4860
  YYZ=              0.0000  XYZ=             -0.0000
 Hexadecapole moment (field-independent basis, Debye-Ang**3):
 XXXX=            -96.7010 YYYY=            -29.1551 ZZZZ=            -12.5078 XXXY=            -12.7806
 XXXZ=              0.0000 YYYX=             -8.6838 YYYZ=              0.0000 ZZZX=              0.0000
 ZZZY=              0.0000 XXYY=            -20.9006 XXZZ=            -18.3156 YYZZ=             -8.1707
 XXYZ=              0.0000 YYXZ=              0.0000 ZZXY=             -4.0510
 N-N= 7.267365517644D+01 E-N=-6.797952430159D+02  KE= 2.252982700365D+02
                          Isotropic Fermi Contact Couplings
        Atom                 a.u.       MegaHertz       Gauss      10(-4) cm-1
     1  O(17)              0.09852     -59.72319     -21.31072     -19.92151
     2  O(17)              0.04768     -28.90307     -10.31333      -9.64103
     3  O(17)             -0.00921       5.58529       1.99297       1.86305
     4  H(1)               0.00028       1.24394       0.44387       0.41493
 PrsmSu:  requested number of processors reduced to:  21 ShMem   1 Linda.
 --------------------------------------------------------
       Center         ----  Spin Dipole Couplings  ----
                      3XX-RR        3YY-RR        3ZZ-RR
 --------------------------------------------------------
     1   Atom       -1.469803     -1.351923      2.821726
     2   Atom       -1.139321     -0.995338      2.134659
     3   Atom       -0.195769     -0.103191      0.298960
     4   Atom       -0.002265      0.009135     -0.006870
 --------------------------------------------------------
                        XY            XZ            YZ
 --------------------------------------------------------
     1   Atom        0.107010     -0.000000      0.000000
     2   Atom        0.150933     -0.000000      0.000000
     3   Atom       -0.180924     -0.000000     -0.000000
     4   Atom        0.019461     -0.000000     -0.000000
 --------------------------------------------------------


 ---------------------------------------------------------------------------------
              Anisotropic Spin Dipole Couplings in Principal Axis System
 ---------------------------------------------------------------------------------

       Atom             a.u.   MegaHertz   Gauss  10(-4) cm-1        Axes

              Baa    -1.5330   110.929    39.582    37.002  0.8609 -0.5087  0.0000
     1 O(17)  Bbb    -1.2887    93.249    33.274    31.105  0.5087  0.8609  0.0000
              Bcc     2.8217  -204.178   -72.856   -68.106  0.0000  0.0000  1.0000
 
              Baa    -1.2346    89.331    31.876    29.798  0.8457 -0.5336  0.0000
     2 O(17)  Bbb    -0.9001    65.131    23.240    21.725  0.5336  0.8457  0.0000
              Bcc     2.1347  -154.462   -55.116   -51.523  0.0000  0.0000  1.0000
 
              Baa    -0.3362    24.329     8.681     8.115  0.7899  0.6132 -0.0000
     3 O(17)  Bbb     0.0373    -2.697    -0.962    -0.900 -0.6132  0.7899  0.0000
              Bcc     0.2990   -21.633    -7.719    -7.216  0.0000  0.0000  1.0000
 
              Baa    -0.0168    -8.987    -3.207    -2.998  0.8003 -0.5995  0.0000
     4 H(1)   Bbb    -0.0069    -3.665    -1.308    -1.223  0.0000  0.0000  1.0000
              Bcc     0.0237    12.653     4.515     4.220  0.5995  0.8003 -0.0000
 

 ---------------------------------------------------------------------------------

 PrsmSu:  requested number of processors reduced to:  21 ShMem   1 Linda.
 No NMR shielding tensors so no spin-rotation constants.
 Leave Link  601 at Sun Apr 18 03:57:20 2021, MaxMem=   104857600 cpu:             231.6 elap:               5.2
 (Enter /s/ls4/users/knvvv/bin/g16sse/l801.exe)
 DoSCS=F DFT=T ScalE2(SS,OS)=  1.000000  1.000000
 Range of M.O.s used for correlation:     1   201
 NBasis=   201 NAE=    13 NBE=    12 NFC=     0 NFV=     0
 NROrb=    201 NOA=    13 NOB=    12 NVA=   188 NVB=   189

 **** Warning!!: The largest alpha MO coefficient is  0.12981423D+02


 **** Warning!!: The largest beta MO coefficient is  0.13155530D+02

 Leave Link  801 at Sun Apr 18 03:57:21 2021, MaxMem=   104857600 cpu:               3.8 elap:               0.1
 (Enter /s/ls4/users/knvvv/bin/g16sse/l914.exe)
 UHF ground state
 Doing stability rather than CIS.
 Two-electron integrals replicated using symmetry.
 MDV=   104857600 DFT=T DoStab=T Mixed=T DoRPA=F DoScal=F NonHer=F
 Making orbital integer symmetry assigments:
 Orbital symmetries:
 Alpha Orbitals:
       Occupied  (A') (A') (A') (A') (A') (A') (A") (A') (A') (A')
                 (A") (A') (A")
       Virtual   (A') (A') (A') (A') (A") (A') (A') (A') (A") (A')
                 (A") (A') (A') (A") (A') (A') (A') (A') (A") (A')
                 (A') (A") (A') (A") (A') (A') (A') (A") (A') (A")
                 (A') (A") (A') (A") (A') (A') (A') (A") (A") (A')
                 (A') (A') (A") (A') (A') (A") (A') (A') (A') (A")
                 (A') (A") (A') (A") (A') (A') (A") (A') (A") (A')
                 (A') (A') (A') (A") (A') (A') (A") (A") (A") (A')
                 (A') (A") (A") (A') (A') (A") (A') (A') (A") (A')
                 (A') (A") (A') (A') (A") (A') (A") (A') (A') (A')
                 (A") (A') (A') (A") (A') (A") (A') (A') (A") (A')
                 (A') (A") (A') (A') (A") (A') (A') (A') (A") (A")
                 (A') (A') (A") (A') (A") (A') (A') (A") (A") (A")
                 (A') (A') (A') (A') (A") (A') (A") (A') (A") (A')
                 (A') (A") (A') (A") (A") (A') (A') (A') (A") (A')
                 (A") (A") (A") (A') (A') (A') (A") (A') (A") (A')
                 (A') (A') (A") (A") (A') (A') (A") (A") (A') (A')
                 (A") (A') (A') (A") (A") (A') (A") (A') (A") (A')
                 (A') (A') (A') (A") (A') (A") (A') (A') (A') (A')
                 (A') (A') (A') (A') (A') (A') (A') (A')
 Beta  Orbitals:
       Occupied  (A') (A') (A') (A') (A') (A') (A') (A') (A") (A')
                 (A") (A')
       Virtual   (A") (A') (A') (A') (A') (A") (A') (A') (A') (A")
                 (A') (A") (A') (A') (A") (A') (A') (A') (A') (A")
                 (A') (A') (A") (A') (A") (A') (A') (A') (A") (A')
                 (A") (A') (A") (A') (A') (A") (A') (A') (A") (A")
                 (A') (A') (A') (A") (A') (A') (A") (A') (A') (A')
                 (A") (A') (A") (A') (A") (A') (A') (A") (A') (A')
                 (A") (A') (A') (A') (A") (A') (A') (A") (A") (A")
                 (A') (A') (A") (A") (A') (A') (A") (A') (A') (A")
                 (A') (A') (A") (A') (A') (A") (A') (A") (A') (A')
                 (A') (A") (A') (A') (A") (A') (A") (A') (A') (A")
                 (A') (A') (A") (A') (A') (A") (A') (A') (A') (A")
                 (A") (A') (A') (A") (A') (A") (A') (A') (A") (A")
                 (A") (A') (A') (A') (A') (A") (A') (A") (A') (A")
                 (A') (A') (A") (A') (A") (A") (A') (A') (A') (A")
                 (A') (A") (A") (A") (A') (A') (A') (A") (A') (A")
                 (A') (A') (A') (A") (A') (A") (A') (A") (A") (A')
                 (A') (A") (A') (A') (A") (A") (A') (A") (A') (A")
                 (A') (A') (A') (A') (A") (A') (A") (A') (A') (A')
                 (A') (A') (A') (A') (A') (A') (A') (A') (A')
    12 initial guesses have been made.
 Convergence on wavefunction:    0.001000000000000
 Davidson Disk Diagonalization:  ConvIn= 1.00D-03 SkipCon=T Conv= 1.00D-03.
 Max sub-space:  2000 roots to seek:    12 dimension of matrix:         4712
 Iteration     1 Dimension    12 NMult     0 NNew     12
 Estimated number of processors is:   19
 CISAX will form     1 AO SS matrices at one time.
 NMat=     1 NSing=     1 JSym2X= 2.
 FoFJK:  IHMeth= 1 ICntrl=       0 DoSepK=F KAlg= 0 I1Cent=           0 FoldK=F
 IRaf= 980000000 NMat=       1 IRICut=       1 DoRegI=T DoRafI=F ISym2E= 2 IDoP0=0 IntGTp=1.
 FoFCou: FMM=F IPFlag=           0 FMFlag=      100000 FMFlg1=           0
         NFxFlg=           0 DoJE=F BraDBF=F KetDBF=F FulRan=T
         wScrn=  0.000000 ICntrl=         0 IOpCl=  1 I1Cent=           0 NGrid=           0
         NMat0=    1 NMatS0=      1 NMatT0=    0 NMatD0=    1 NMtDS0=    0 NMtDT0=    0
 Integrals replicated using symmetry in FoFCou.
 CoulSu:  requested number of processors reduced to:  20 ShMem   1 Linda.
 NMat=     1 NSing=     1 JSym2X= 2.
 CoulSu:  requested number of processors reduced to:  20 ShMem   1 Linda.
 NMat=     1 NSing=     1 JSym2X= 2.
 CoulSu:  requested number of processors reduced to:  20 ShMem   1 Linda.
 NMat=     1 NSing=     1 JSym2X= 2.
 CoulSu:  requested number of processors reduced to:  20 ShMem   1 Linda.
 NMat=     1 NSing=     1 JSym2X= 2.
 CoulSu:  requested number of processors reduced to:  20 ShMem   1 Linda.
 NMat=     1 NSing=     1 JSym2X= 2.
 CoulSu:  requested number of processors reduced to:  20 ShMem   1 Linda.
 NMat=     1 NSing=     1 JSym2X= 2.
 CoulSu:  requested number of processors reduced to:  20 ShMem   1 Linda.
 NMat=     1 NSing=     1 JSym2X= 2.
 CoulSu:  requested number of processors reduced to:  20 ShMem   1 Linda.
 NMat=     1 NSing=     1 JSym2X= 2.
 CoulSu:  requested number of processors reduced to:  20 ShMem   1 Linda.
 NMat=     1 NSing=     1 JSym2X= 2.
 CoulSu:  requested number of processors reduced to:  20 ShMem   1 Linda.
 NMat=     1 NSing=     1 JSym2X= 2.
 CoulSu:  requested number of processors reduced to:  20 ShMem   1 Linda.
 NMat=     1 NSing=     1 JSym2X= 2.
 CoulSu:  requested number of processors reduced to:  20 ShMem   1 Linda.
 Excitation Energies [eV] at current iteration:
 Root      1 :     2.468826555366350
 Root      2 :     4.069238286140417
 Root      3 :     4.074260070259411
 Root      4 :     5.614390136374341
 Root      5 :     5.902670357640284
 Root      6 :     7.057055482751251
 Root      7 :     7.866284800848319
 Root      8 :     8.728231193003309
 Root      9 :     9.187315979810096
 Root     10 :     9.425677544938495
 Root     11 :     9.701678827408676
 Root     12 :    14.640853870153000
 Iteration     2 Dimension    24 NMult    12 NNew     12
 Estimated number of processors is:   19
 CISAX will form     1 AO SS matrices at one time.
 NMat=     1 NSing=     1 JSym2X= 2.
 CoulSu:  requested number of processors reduced to:  20 ShMem   1 Linda.
 NMat=     1 NSing=     1 JSym2X= 2.
 CoulSu:  requested number of processors reduced to:  20 ShMem   1 Linda.
 NMat=     1 NSing=     1 JSym2X= 2.
 CoulSu:  requested number of processors reduced to:  20 ShMem   1 Linda.
 NMat=     1 NSing=     1 JSym2X= 2.
 CoulSu:  requested number of processors reduced to:  20 ShMem   1 Linda.
 NMat=     1 NSing=     1 JSym2X= 2.
 CoulSu:  requested number of processors reduced to:  20 ShMem   1 Linda.
 NMat=     1 NSing=     1 JSym2X= 2.
 CoulSu:  requested number of processors reduced to:  20 ShMem   1 Linda.
 NMat=     1 NSing=     1 JSym2X= 2.
 CoulSu:  requested number of processors reduced to:  20 ShMem   1 Linda.
 NMat=     1 NSing=     1 JSym2X= 2.
 CoulSu:  requested number of processors reduced to:  20 ShMem   1 Linda.
 NMat=     1 NSing=     1 JSym2X= 2.
 CoulSu:  requested number of processors reduced to:  20 ShMem   1 Linda.
 NMat=     1 NSing=     1 JSym2X= 2.
 CoulSu:  requested number of processors reduced to:  20 ShMem   1 Linda.
 NMat=     1 NSing=     1 JSym2X= 2.
 CoulSu:  requested number of processors reduced to:  20 ShMem   1 Linda.
 NMat=     1 NSing=     1 JSym2X= 2.
 CoulSu:  requested number of processors reduced to:  20 ShMem   1 Linda.
 Root      1 not converged, maximum delta is    0.084657042783461
 Excitation Energies [eV] at current iteration:
 Root      1 :     2.076061037884295   Change is   -0.392765517482055
 Root      2 :     2.976593791766669   Change is   -1.097666278492742
 Root      3 :     3.604124427878677   Change is   -0.465113858261740
 Root      4 :     4.843564375853059   Change is   -0.770825760521283
 Root      5 :     5.414331743812640   Change is   -0.488338613827645
 Root      6 :     6.645902371188579   Change is   -0.411153111562672
 Root      7 :     7.051222434894023   Change is   -0.815062365954297
 Root      8 :     8.295600030813922   Change is   -0.432631162189387
 Root      9 :     8.577078691518341   Change is   -0.610237288291754
 Root     10 :     8.779415807412121   Change is   -0.922263019996555
 Root     11 :     8.961748911327795   Change is   -0.463928633610700
 Root     12 :     9.739526720119228   Change is   -4.901327150033769
 Iteration     3 Dimension    27 NMult    24 NNew      3
 Estimated number of processors is:   19
 CISAX will form     1 AO SS matrices at one time.
 NMat=     1 NSing=     1 JSym2X= 2.
 CoulSu:  requested number of processors reduced to:  20 ShMem   1 Linda.
 NMat=     1 NSing=     1 JSym2X= 2.
 CoulSu:  requested number of processors reduced to:  20 ShMem   1 Linda.
 NMat=     1 NSing=     1 JSym2X= 2.
 CoulSu:  requested number of processors reduced to:  20 ShMem   1 Linda.
 Root      1 not converged, maximum delta is    0.021205919240565
 Excitation Energies [eV] at current iteration:
 Root      1 :     2.052943973482285   Change is   -0.023117064402010
 Root      2 :     2.862031147559350   Change is   -0.114562644207320
 Root      3 :     3.581664174756767   Change is   -0.022460253121911
 Iteration     4 Dimension    30 NMult    27 NNew      3
 Estimated number of processors is:   19
 CISAX will form     1 AO SS matrices at one time.
 NMat=     1 NSing=     1 JSym2X= 2.
 CoulSu:  requested number of processors reduced to:  20 ShMem   1 Linda.
 NMat=     1 NSing=     1 JSym2X= 2.
 CoulSu:  requested number of processors reduced to:  20 ShMem   1 Linda.
 NMat=     1 NSing=     1 JSym2X= 2.
 CoulSu:  requested number of processors reduced to:  20 ShMem   1 Linda.
 Root      1 not converged, maximum delta is    0.006049253909675
 Excitation Energies [eV] at current iteration:
 Root      1 :     2.051539771450710   Change is   -0.001404202031576
 Root      2 :     2.850786069762393   Change is   -0.011245077796957
 Root      3 :     3.580142343893538   Change is   -0.001521830863229
 Iteration     5 Dimension    33 NMult    30 NNew      3
 Estimated number of processors is:   19
 CISAX will form     1 AO SS matrices at one time.
 NMat=     1 NSing=     1 JSym2X= 2.
 CoulSu:  requested number of processors reduced to:  20 ShMem   1 Linda.
 NMat=     1 NSing=     1 JSym2X= 2.
 CoulSu:  requested number of processors reduced to:  20 ShMem   1 Linda.
 NMat=     1 NSing=     1 JSym2X= 2.
 CoulSu:  requested number of processors reduced to:  20 ShMem   1 Linda.
 Root      1 has converged.
 Excitation Energies [eV] at current iteration:
 Root      1 :     2.051493074488671   Change is   -0.000046696962039
 Root      2 :     2.848972839670362   Change is   -0.001813230092031
 Root      3 :     3.580053104956962   Change is   -0.000089238936576
 Convergence achieved on expansion vectors.
 ***********************************************************************
 Stability analysis using <AA,BB:AA,BB> singles matrix:
 ***********************************************************************
 1PDM for each excited state written to RWF  633
 Ground to excited state transition densities written to RWF  633

 Eigenvectors of the stability matrix:
 
 Eigenvector   1:  2.088-A"   Eigenvalue= 0.0753910  <S**2>=0.840
      8B -> 13B        0.11003
     11B -> 14B       -0.18705
     12B -> 13B        0.96203
 The wavefunction is stable under the perturbations considered.
 Leave Link  914 at Sun Apr 18 03:59:50 2021, MaxMem=   104857600 cpu:            6067.9 elap:             149.9
 (Enter /s/ls4/users/knvvv/bin/g16sse/l508.exe)
 The wavefunction is already stable.
 Leave Link  508 at Sun Apr 18 03:59:50 2021, MaxMem=   104857600 cpu:               2.2 elap:               0.1
 (Enter /s/ls4/users/knvvv/bin/g16sse/l601.exe)
 Copying SCF densities to generalized density rwf, IOpCl= 1 IROHF=0.

 **********************************************************************

            Population analysis using the SCF density.

 **********************************************************************

 Orbital symmetries:
 Alpha Orbitals:
       Occupied  (A') (A') (A') (A') (A') (A') (A") (A') (A') (A')
                 (A") (A') (A")
       Virtual   (A') (A') (A') (A') (A") (A') (A') (A') (A") (A')
                 (A") (A') (A') (A") (A') (A') (A') (A') (A") (A')
                 (A') (A") (A') (A") (A') (A') (A') (A") (A') (A")
                 (A') (A") (A') (A") (A') (A') (A') (A") (A") (A')
                 (A') (A') (A") (A') (A') (A") (A') (A') (A') (A")
                 (A') (A") (A') (A") (A') (A') (A") (A') (A") (A')
                 (A') (A') (A') (A") (A') (A') (A") (A") (A") (A')
                 (A') (A") (A") (A') (A') (A") (A') (A') (A") (A')
                 (A') (A") (A') (A') (A") (A') (A") (A') (A') (A')
                 (A") (A') (A') (A") (A') (A") (A') (A') (A") (A')
                 (A') (A") (A') (A') (A") (A') (A') (A') (A") (A")
                 (A') (A') (A") (A') (A") (A') (A') (A") (A") (A")
                 (A') (A') (A') (A') (A") (A') (A") (A') (A") (A')
                 (A') (A") (A') (A") (A") (A') (A') (A') (A") (A')
                 (A") (A") (A") (A') (A') (A') (A") (A') (A") (A')
                 (A') (A') (A") (A") (A') (A') (A") (A") (A') (A')
                 (A") (A') (A') (A") (A") (A') (A") (A') (A") (A')
                 (A') (A') (A') (A") (A') (A") (A') (A') (A') (A')
                 (A') (A') (A') (A') (A') (A') (A') (A')
 Beta  Orbitals:
       Occupied  (A') (A') (A') (A') (A') (A') (A') (A') (A") (A')
                 (A") (A')
       Virtual   (A") (A') (A') (A') (A') (A") (A') (A') (A') (A")
                 (A') (A") (A') (A') (A") (A') (A') (A') (A') (A")
                 (A') (A') (A") (A') (A") (A') (A') (A') (A") (A')
                 (A") (A') (A") (A') (A') (A") (A') (A') (A") (A")
                 (A') (A') (A') (A") (A') (A') (A") (A') (A') (A')
                 (A") (A') (A") (A') (A") (A') (A') (A") (A') (A')
                 (A") (A') (A') (A') (A") (A') (A') (A") (A") (A")
                 (A') (A') (A") (A") (A') (A') (A") (A') (A') (A")
                 (A') (A') (A") (A') (A') (A") (A') (A") (A') (A')
                 (A') (A") (A') (A') (A") (A') (A") (A') (A') (A")
                 (A') (A') (A") (A') (A') (A") (A') (A') (A') (A")
                 (A") (A') (A') (A") (A') (A") (A') (A') (A") (A")
                 (A") (A') (A') (A') (A') (A") (A') (A") (A') (A")
                 (A') (A') (A") (A') (A") (A") (A') (A') (A') (A")
                 (A') (A") (A") (A") (A') (A') (A') (A") (A') (A")
                 (A') (A') (A') (A") (A') (A") (A') (A") (A") (A')
                 (A') (A") (A') (A') (A") (A") (A') (A") (A') (A")
                 (A') (A') (A') (A') (A") (A') (A") (A') (A') (A')
                 (A') (A') (A') (A') (A') (A') (A') (A') (A')
 The electronic state is 2-A".
 Alpha  occ. eigenvalues --  -19.85334 -19.75274 -19.71875  -1.43536  -1.17552
 Alpha  occ. eigenvalues --   -0.95683  -0.67392  -0.67195  -0.64115  -0.55040
 Alpha  occ. eigenvalues --   -0.47012  -0.41633  -0.38834
 Alpha virt. eigenvalues --   -0.01351   0.04836   0.16100   0.23627   0.24716
 Alpha virt. eigenvalues --    0.26624   0.27922   0.32610   0.33097   0.33370
 Alpha virt. eigenvalues --    0.35667   0.36852   0.40499   0.55725   0.56292
 Alpha virt. eigenvalues --    0.64357   0.72737   0.78787   0.85367   0.91583
 Alpha virt. eigenvalues --    0.98044   1.02585   1.08140   1.14662   1.18337
 Alpha virt. eigenvalues --    1.23188   1.27135   1.27508   1.30303   1.30901
 Alpha virt. eigenvalues --    1.34593   1.36268   1.37787   1.39658   1.39892
 Alpha virt. eigenvalues --    1.50683   1.61469   1.63947   1.76200   1.84238
 Alpha virt. eigenvalues --    1.87179   1.92374   2.03817   2.05226   2.11225
 Alpha virt. eigenvalues --    2.19241   2.21583   2.40926   2.53534   2.59088
 Alpha virt. eigenvalues --    2.63943   2.83203   2.85766   2.86490   2.92761
 Alpha virt. eigenvalues --    2.93592   2.99093   3.09589   3.14716   3.15136
 Alpha virt. eigenvalues --    3.27893   3.29469   3.41374   3.42596   3.48968
 Alpha virt. eigenvalues --    3.58339   3.71661   3.78247   3.81100   3.88290
 Alpha virt. eigenvalues --    3.90649   3.90908   3.92735   3.93700   4.04294
 Alpha virt. eigenvalues --    4.07342   4.11320   4.18772   4.19619   4.20799
 Alpha virt. eigenvalues --    4.25461   4.32487   4.36557   4.38443   4.48198
 Alpha virt. eigenvalues --    4.54027   4.57927   4.64139   4.75572   4.82440
 Alpha virt. eigenvalues --    4.87405   4.94870   5.11868   5.12459   5.25641
 Alpha virt. eigenvalues --    5.37590   5.48096   5.67522   5.72367   5.83224
 Alpha virt. eigenvalues --    6.02240   6.39354   6.53244   7.01317   7.03098
 Alpha virt. eigenvalues --    7.13483   7.20796   7.51490   7.57369   7.62864
 Alpha virt. eigenvalues --    7.70094   7.94157   8.06222   8.13623   8.19353
 Alpha virt. eigenvalues --    8.20263   8.33174   8.37722   8.39165   8.44165
 Alpha virt. eigenvalues --    8.48082   8.53188   8.55831   8.66048   8.72439
 Alpha virt. eigenvalues --    8.74012   8.88073   8.95153   9.13849   9.24602
 Alpha virt. eigenvalues --    9.44338   9.54756   9.91441   9.97204  10.04987
 Alpha virt. eigenvalues --   10.08696  10.24182  10.30438  10.45491  10.59843
 Alpha virt. eigenvalues --   10.60314  10.70870  10.75117  10.76514  10.84394
 Alpha virt. eigenvalues --   10.86778  10.88425  10.91162  11.00776  11.06241
 Alpha virt. eigenvalues --   11.15629  11.20706  11.25273  11.27768  11.29566
 Alpha virt. eigenvalues --   11.39643  11.44820  11.46946  11.52263  11.57436
 Alpha virt. eigenvalues --   11.66237  11.72378  11.74613  11.76322  11.83307
 Alpha virt. eigenvalues --   11.84240  11.90929  11.98773  12.04730  12.05579
 Alpha virt. eigenvalues --   12.44608  12.60209  12.73715  13.36890  13.49015
 Alpha virt. eigenvalues --   13.52741  13.53471  13.58002  13.80725  14.30470
 Alpha virt. eigenvalues --   15.07665  16.19391  47.33240  47.80008  48.19102
 Alpha virt. eigenvalues --  250.28352 250.80989 251.26516
  Beta  occ. eigenvalues --  -19.84147 -19.73834 -19.71897  -1.40131  -1.16750
  Beta  occ. eigenvalues --   -0.91148  -0.65139  -0.62279  -0.57690  -0.54345
  Beta  occ. eigenvalues --   -0.42965  -0.39519
  Beta virt. eigenvalues --   -0.08424  -0.00308   0.04941   0.16704   0.24210
  Beta virt. eigenvalues --    0.25502   0.26942   0.28025   0.33020   0.33385
  Beta virt. eigenvalues --    0.34563   0.36385   0.36879   0.40770   0.55723
  Beta virt. eigenvalues --    0.56578   0.64352   0.73153   0.78859   0.85876
  Beta virt. eigenvalues --    0.91771   0.98107   1.04206   1.08760   1.15938
  Beta virt. eigenvalues --    1.18689   1.23352   1.27456   1.28712   1.31347
  Beta virt. eigenvalues --    1.33167   1.34765   1.37351   1.37952   1.40556
  Beta virt. eigenvalues --    1.42429   1.50789   1.61791   1.64556   1.76856
  Beta virt. eigenvalues --    1.84420   1.87427   1.92603   2.03954   2.05381
  Beta virt. eigenvalues --    2.11040   2.19236   2.21727   2.41198   2.53566
  Beta virt. eigenvalues --    2.59052   2.64089   2.83500   2.85779   2.86563
  Beta virt. eigenvalues --    2.92718   2.94133   3.01308   3.09907   3.15261
  Beta virt. eigenvalues --    3.15542   3.27646   3.29925   3.42311   3.42700
  Beta virt. eigenvalues --    3.49541   3.58898   3.73341   3.79784   3.81865
  Beta virt. eigenvalues --    3.89001   3.91582   3.91762   3.94199   3.94677
  Beta virt. eigenvalues --    4.04875   4.07729   4.12229   4.19159   4.19737
  Beta virt. eigenvalues --    4.20959   4.25580   4.32751   4.36555   4.38572
  Beta virt. eigenvalues --    4.48029   4.53935   4.59502   4.63893   4.75480
  Beta virt. eigenvalues --    4.83085   4.92164   4.95375   5.11842   5.12766
  Beta virt. eigenvalues --    5.25825   5.41238   5.48035   5.67643   5.72384
  Beta virt. eigenvalues --    5.83006   6.02122   6.39257   6.53081   7.01148
  Beta virt. eigenvalues --    7.03086   7.13452   7.20609   7.52192   7.57353
  Beta virt. eigenvalues --    7.62835   7.69830   7.94061   8.06675   8.14068
  Beta virt. eigenvalues --    8.19592   8.20296   8.33911   8.37934   8.39211
  Beta virt. eigenvalues --    8.44873   8.47131   8.52786   8.56128   8.66424
  Beta virt. eigenvalues --    8.76354   8.78268   8.88619   8.95736   9.14100
  Beta virt. eigenvalues --    9.24293   9.44227   9.54844   9.90904   9.96779
  Beta virt. eigenvalues --   10.04718  10.08475  10.23893  10.30698  10.47029
  Beta virt. eigenvalues --   10.59165  10.60474  10.74991  10.81327  10.83241
  Beta virt. eigenvalues --   10.86205  10.89218  10.90616  10.92913  11.01738
  Beta virt. eigenvalues --   11.05783  11.18732  11.23938  11.29291  11.29609
  Beta virt. eigenvalues --   11.30563  11.39004  11.47059  11.49936  11.52120
  Beta virt. eigenvalues --   11.58935  11.70298  11.72826  11.74123  11.82682
  Beta virt. eigenvalues --   11.84621  11.91632  11.96992  12.00703  12.04662
  Beta virt. eigenvalues --   12.09710  12.44170  12.60159  12.73051  13.41625
  Beta virt. eigenvalues --   13.50877  13.52669  13.55672  13.58455  13.83904
  Beta virt. eigenvalues --   14.33962  15.07072  16.18989  47.35066  47.82211
  Beta virt. eigenvalues --   48.18295 250.26172 250.79321 251.25257
          Condensed to atoms (all electrons):
               1          2          3          4
     1  O    8.041642   0.140390  -0.068603   0.026117
     2  O    0.140390   7.635934   0.099815  -0.015600
     3  O   -0.068603   0.099815   7.981731   0.290093
     4  H    0.026117  -0.015600   0.290093   0.396270
          Atomic-Atomic Spin Densities.
               1          2          3          4
     1  O    0.794178  -0.171444   0.017077  -0.002608
     2  O   -0.171444   0.593829  -0.020172  -0.001975
     3  O    0.017077  -0.020172  -0.037323   0.003776
     4  H   -0.002608  -0.001975   0.003776   0.000009
 Mulliken charges and spin densities:
               1          2
     1  O   -0.139545   0.637203
     2  O    0.139461   0.400238
     3  O   -0.303036  -0.036643
     4  H    0.303121  -0.000798
 Sum of Mulliken charges =  -0.00000   1.00000
 Mulliken charges and spin densities with hydrogens summed into heavy atoms:
               1          2
     1  O   -0.139545   0.637203
     2  O    0.139461   0.400238
     3  O    0.000085  -0.037441
 Electronic spatial extent (au):  <R**2>=            130.7622
 Charge=             -0.0000 electrons
 Dipole moment (field-independent basis, Debye):
    X=              0.2040    Y=             -1.0876    Z=              0.0000  Tot=              1.1065
 Quadrupole moment (field-independent basis, Debye-Ang):
   XX=            -19.0685   YY=            -13.7535   ZZ=            -16.5064
   XY=              0.1017   XZ=              0.0000   YZ=             -0.0000
 Traceless Quadrupole moment (field-independent basis, Debye-Ang):
   XX=             -2.6257   YY=              2.6893   ZZ=             -0.0636
   XY=              0.1017   XZ=              0.0000   YZ=             -0.0000
 Octapole moment (field-independent basis, Debye-Ang**2):
  XXX=              1.5442  YYY=             -3.7461  ZZZ=             -0.0000  XYY=             -1.3279
  XXY=              0.4235  XXZ=             -0.0000  XZZ=              0.8650  YZZ=              0.4860
  YYZ=              0.0000  XYZ=             -0.0000
 Hexadecapole moment (field-independent basis, Debye-Ang**3):
 XXXX=            -96.7010 YYYY=            -29.1551 ZZZZ=            -12.5078 XXXY=            -12.7806
 XXXZ=              0.0000 YYYX=             -8.6838 YYYZ=              0.0000 ZZZX=              0.0000
 ZZZY=              0.0000 XXYY=            -20.9006 XXZZ=            -18.3156 YYZZ=             -8.1707
 XXYZ=              0.0000 YYXZ=              0.0000 ZZXY=             -4.0510
 N-N= 7.267365517644D+01 E-N=-6.797952430159D+02  KE= 2.252982700365D+02
                          Isotropic Fermi Contact Couplings
        Atom                 a.u.       MegaHertz       Gauss      10(-4) cm-1
     1  O(17)              0.09852     -59.72319     -21.31072     -19.92151
     2  O(17)              0.04768     -28.90307     -10.31333      -9.64103
     3  O(17)             -0.00921       5.58529       1.99297       1.86305
     4  H(1)               0.00028       1.24394       0.44387       0.41493
 PrsmSu:  requested number of processors reduced to:  21 ShMem   1 Linda.
 --------------------------------------------------------
       Center         ----  Spin Dipole Couplings  ----
                      3XX-RR        3YY-RR        3ZZ-RR
 --------------------------------------------------------
     1   Atom       -1.469803     -1.351923      2.821726
     2   Atom       -1.139321     -0.995338      2.134659
     3   Atom       -0.195769     -0.103191      0.298960
     4   Atom       -0.002265      0.009135     -0.006870
 --------------------------------------------------------
                        XY            XZ            YZ
 --------------------------------------------------------
     1   Atom        0.107010     -0.000000      0.000000
     2   Atom        0.150933     -0.000000      0.000000
     3   Atom       -0.180924     -0.000000     -0.000000
     4   Atom        0.019461     -0.000000     -0.000000
 --------------------------------------------------------


 ---------------------------------------------------------------------------------
              Anisotropic Spin Dipole Couplings in Principal Axis System
 ---------------------------------------------------------------------------------

       Atom             a.u.   MegaHertz   Gauss  10(-4) cm-1        Axes

              Baa    -1.5330   110.929    39.582    37.002  0.8609 -0.5087  0.0000
     1 O(17)  Bbb    -1.2887    93.249    33.274    31.105  0.5087  0.8609  0.0000
              Bcc     2.8217  -204.178   -72.856   -68.106  0.0000  0.0000  1.0000
 
              Baa    -1.2346    89.331    31.876    29.798  0.8457 -0.5336  0.0000
     2 O(17)  Bbb    -0.9001    65.131    23.240    21.725  0.5336  0.8457  0.0000
              Bcc     2.1347  -154.462   -55.116   -51.523  0.0000  0.0000  1.0000
 
              Baa    -0.3362    24.329     8.681     8.115  0.7899  0.6132 -0.0000
     3 O(17)  Bbb     0.0373    -2.697    -0.962    -0.900 -0.6132  0.7899  0.0000
              Bcc     0.2990   -21.633    -7.719    -7.216  0.0000  0.0000  1.0000
 
              Baa    -0.0168    -8.987    -3.207    -2.998  0.8003 -0.5995  0.0000
     4 H(1)   Bbb    -0.0069    -3.665    -1.308    -1.223  0.0000  0.0000  1.0000
              Bcc     0.0237    12.653     4.515     4.220  0.5995  0.8003 -0.0000
 

 ---------------------------------------------------------------------------------

 PrsmSu:  requested number of processors reduced to:  21 ShMem   1 Linda.
 No NMR shielding tensors so no spin-rotation constants.
 Leave Link  601 at Sun Apr 18 03:59:56 2021, MaxMem=   104857600 cpu:             256.3 elap:               5.7
 (Enter /s/ls4/users/knvvv/bin/g16sse/l9999.exe)

 Test job not archived.
 1\1\GINC-N305\Stability\UM062X\def2QZVP\H1O3(2)\KNVVV\18-Apr-2021\0\\#
 P M062X/Def2QZVP Integral=UltraFineGrid SCF=NoSymm Stable=(RExt, Opt) 
 IOp(1/33=1)\\Database calculations.\\0,2\O,0,0.,0.3034159717,-1.093712
 7481\O,0,0.,-0.5273609495,-0.1609698697\O,0,0.,0.1563085034,1.19925628
 18\H,0,0.,1.0736184779,0.8798024868\\Version=ES64L-G16RevA.03\State=2-
 A"\HF=-226.0760239\S2=0.760509\S2-1=0.\S2A=0.750073\RMSD=9.337e-09\Dip
 ole=0.,0.4317236,0.0560025\Quadrupole=-0.0472932,1.576983,-1.5296898,0
 .,0.,1.2233071\PG=CS [SG(H1O3)]\\@


 A MAN IS NEVER SO BRILLIANT AS WHEN HE TAKES THE WORDS RIGHT OUT
 OF YOUR MOUTH. -- ARNOT SHEPPARD, JR.
 Job cpu time:       0 days  2 hours 23 minutes  3.6 seconds.
 Elapsed time:       0 days  0 hours  3 minutes 34.5 seconds.
 File lengths (MBytes):  RWF=    144 Int=      0 D2E=      0 Chk=      6 Scr=      1
 Normal termination of Gaussian 16 at Sun Apr 18 03:59:56 2021.
