 Entering Gaussian System, Link 0=/opt/g16avx/g16
 Input=M062X--MG3S--005_C2H2_SR-MGN-BE107.gjf
 Output=M062X--MG3S--005_C2H2_SR-MGN-BE107.log
 Initial command:
 /opt/g16avx/l1.exe "/scratch/gaussian/Gau-14857.inp" -scrdir="/scratch/gaussian/"
 Entering Link 1 = /opt/g16avx/l1.exe PID=     14859.
  
 Copyright (c) 1988,1990,1992,1993,1995,1998,2003,2009,2016,
            Gaussian, Inc.  All Rights Reserved.
  
 This is part of the Gaussian(R) 16 program.  It is based on
 the Gaussian(R) 09 system (copyright 2009, Gaussian, Inc.),
 the Gaussian(R) 03 system (copyright 2003, Gaussian, Inc.),
 the Gaussian(R) 98 system (copyright 1998, Gaussian, Inc.),
 the Gaussian(R) 94 system (copyright 1995, Gaussian, Inc.),
 the Gaussian 92(TM) system (copyright 1992, Gaussian, Inc.),
 the Gaussian 90(TM) system (copyright 1990, Gaussian, Inc.),
 the Gaussian 88(TM) system (copyright 1988, Gaussian, Inc.),
 the Gaussian 86(TM) system (copyright 1986, Carnegie Mellon
 University), and the Gaussian 82(TM) system (copyright 1983,
 Carnegie Mellon University). Gaussian is a federally registered
 trademark of Gaussian, Inc.
  
 This software contains proprietary and confidential information,
 including trade secrets, belonging to Gaussian, Inc.
  
 This software is provided under written license and may be
 used, copied, transmitted, or stored only in accord with that
 written license.
  
 The following legend is applicable only to US Government
 contracts under FAR:
  
                    RESTRICTED RIGHTS LEGEND
  
 Use, reproduction and disclosure by the US Government is
 subject to restrictions as set forth in subparagraphs (a)
 and (c) of the Commercial Computer Software - Restricted
 Rights clause in FAR 52.227-19.
  
 Gaussian, Inc.
 340 Quinnipiac St., Bldg. 40, Wallingford CT 06492
  
  
 ---------------------------------------------------------------
 Warning -- This program may not be used in any manner that
 competes with the business of Gaussian, Inc. or will provide
 assistance to any competitor of Gaussian, Inc.  The licensee
 of this program is prohibited from giving any competitor of
 Gaussian, Inc. access to this program.  By using this program,
 the user acknowledges that Gaussian, Inc. is engaged in the
 business of creating and licensing software in the field of
 computational chemistry and represents and warrants to the
 licensee that it is not a competitor of Gaussian, Inc. and that
 it will not use this program in any manner prohibited above.
 ---------------------------------------------------------------
  

 Cite this work as:
 Gaussian 16, Revision A.03,
 M. J. Frisch, G. W. Trucks, H. B. Schlegel, G. E. Scuseria, 
 M. A. Robb, J. R. Cheeseman, G. Scalmani, V. Barone, 
 G. A. Petersson, H. Nakatsuji, X. Li, M. Caricato, A. V. Marenich, 
 J. Bloino, B. G. Janesko, R. Gomperts, B. Mennucci, H. P. Hratchian, 
 J. V. Ortiz, A. F. Izmaylov, J. L. Sonnenberg, D. Williams-Young, 
 F. Ding, F. Lipparini, F. Egidi, J. Goings, B. Peng, A. Petrone, 
 T. Henderson, D. Ranasinghe, V. G. Zakrzewski, J. Gao, N. Rega, 
 G. Zheng, W. Liang, M. Hada, M. Ehara, K. Toyota, R. Fukuda, 
 J. Hasegawa, M. Ishida, T. Nakajima, Y. Honda, O. Kitao, H. Nakai, 
 T. Vreven, K. Throssell, J. A. Montgomery, Jr., J. E. Peralta, 
 F. Ogliaro, M. J. Bearpark, J. J. Heyd, E. N. Brothers, K. N. Kudin, 
 V. N. Staroverov, T. A. Keith, R. Kobayashi, J. Normand, 
 K. Raghavachari, A. P. Rendell, J. C. Burant, S. S. Iyengar, 
 J. Tomasi, M. Cossi, J. M. Millam, M. Klene, C. Adamo, R. Cammi, 
 J. W. Ochterski, R. L. Martin, K. Morokuma, O. Farkas, 
 J. B. Foresman, and D. J. Fox, Gaussian, Inc., Wallingford CT, 2016.
 
 ******************************************
 Gaussian 16:  ES64L-G16RevA.03 25-Dec-2016
                19-Apr-2021 
 ******************************************
 %nprocshared=7
 Will use up to    7 processors via shared memory.
 ----------------------------------------------------------------------
 #P M062X/GEN Integral=UltraFineGrid SCF=NoSymm Stable=(RExt, Opt) IOp(
 1/33=1)
 ----------------------------------------------------------------------
 1/33=1,38=1,172=1/1;
 2/12=2,17=6,18=5,40=1/2;
 3/5=7,11=2,25=1,30=1,74=-55,75=-5/1,2,3;
 4/9=2/1;
 5/5=2,38=5/2;
 6/7=2,8=2,9=2,10=2,28=1/1;
 8/6=1,10=90,11=11/1;
 9/8=-3,42=1,46=1/14;
 5/5=2,8=3,17=40,38=5/8(-2);
 6/7=2,8=2,9=2,10=2,28=1/1;
 99/5=1,9=1/99;
 Leave Link    1 at Mon Apr 19 21:01:23 2021, MaxMem=           0 cpu:               0.1 elap:               0.0
 (Enter /opt/g16avx/l101.exe)
 ONIOM data not found on unit 2.
 ----------------------
 Database calculations.
 ----------------------
 TstMul:  ICh=     0
 TstMul:  Mul=     1
 TstMul:  ICh=     0
 TstMul:  Mul=     1
 Symbolic Z-matrix:
 Charge =  0 Multiplicity = 1
 C                     0.        0.        0. 
 C                     0.        0.        1.20314 
 H                     0.        0.        2.26575 
 H                     0.        0.       -1.06261 
 
 RdStrC is calling ZToCFu for IStruc=1 NZ=     4.
 PrtBox:  NBox=     1 Levels=  1 BoxLen=    8.00 SMaxX=        6.29
          Shift=            0.000000            0.000000            2.008042
 Box      1 Number                   0 centers from      1 to      4:
 After GenITR:
 ITRead=  0  0  0  0
 MicOpt= -1 -1 -1 -1
 ITRead=  0  0  0  0
 MicOpt= -1 -1 -1 -1
 NAtoms=      4 NQM=        4 NQMF=       0 NMMI=      0 NMMIF=      0
                NMic=       0 NMicF=      0.
                    Isotopes and Nuclear Properties:
 (Nuclear quadrupole moments (NQMom) in fm**2, nuclear magnetic moments (NMagM)
  in nuclear magnetons)

  Atom         1           2           3           4
 IAtWgt=          12          12           1           1
 AtmWgt=  12.0000000  12.0000000   1.0078250   1.0078250
 NucSpn=           0           0           1           1
 AtZEff=  -0.0000000  -0.0000000  -0.0000000  -0.0000000
 NQMom=    0.0000000   0.0000000   0.0000000   0.0000000
 NMagM=    0.0000000   0.0000000   2.7928460   2.7928460
 AtZNuc=   6.0000000   6.0000000   1.0000000   1.0000000
 No MM parameters found.
 Leave Link  101 at Mon Apr 19 21:01:23 2021, MaxMem=   104857600 cpu:               0.8 elap:               0.1
 (Enter /opt/g16avx/l202.exe)
                          Input orientation:                          
 ---------------------------------------------------------------------
 Center     Atomic      Atomic             Coordinates (Angstroms)
 Number     Number       Type             X           Y           Z
 ---------------------------------------------------------------------
      1          6           0        0.000000    0.000000    0.000000
      2          6           0        0.000000    0.000000    1.203140
      3          1           0        0.000000    0.000000    2.265750
      4          1           0        0.000000    0.000000   -1.062610
 ---------------------------------------------------------------------
                    Distance matrix (angstroms):
                    1          2          3          4
     1  C    0.000000
     2  C    1.203140   0.000000
     3  H    2.265750   1.062610   0.000000
     4  H    1.062610   2.265750   3.328360   0.000000
 Stoichiometry    C2H2
 Framework group  D*H[C*(HC.CH)]
 Deg. of freedom     2
 Full point group                 D*H     NOp   8
 Largest Abelian subgroup         D2H     NOp   8
 Largest concise Abelian subgroup C2      NOp   2
                         Standard orientation:                         
 ---------------------------------------------------------------------
 Center     Atomic      Atomic             Coordinates (Angstroms)
 Number     Number       Type             X           Y           Z
 ---------------------------------------------------------------------
      1          6           0        0.000000    0.000000    0.601570
      2          6           0        0.000000    0.000000   -0.601570
      3          1           0        0.000000    0.000000   -1.664180
      4          1           0       -0.000000    0.000000    1.664180
 ---------------------------------------------------------------------
 Rotational constants (GHZ):           0.0000000          35.4214249          35.4214249
 Leave Link  202 at Mon Apr 19 21:01:23 2021, MaxMem=   104857600 cpu:               0.0 elap:               0.0
 (Enter /opt/g16avx/l301.exe)
 General basis read from cards:  (5D, 7F)
 Centers:       3      4
 S 3 1.00
     Exponent=  3.3865000000D+01 Coefficients=  2.5493800000D-02
     Exponent=  5.0947900000D+00 Coefficients=  1.9037300000D-01
     Exponent=  1.1587900000D+00 Coefficients=  8.5216100000D-01
 S 1 1.00
     Exponent=  3.2584000000D-01 Coefficients=  1.0000000000D+00
 S 1 1.00
     Exponent=  1.0274100000D-01 Coefficients=  1.0000000000D+00
 P 1 1.00
     Exponent=  1.5000000000D+00 Coefficients=  1.0000000000D+00
 P 1 1.00
     Exponent=  3.7500000000D-01 Coefficients=  1.0000000000D+00
 ****
 Centers:       1      2
 S 6 1.00
     Exponent=  4.5632400000D+03 Coefficients=  1.9666500000D-03
     Exponent=  6.8202400000D+02 Coefficients=  1.5230600000D-02
     Exponent=  1.5497300000D+02 Coefficients=  7.6126900000D-02
     Exponent=  4.4455300000D+01 Coefficients=  2.6080100000D-01
     Exponent=  1.3029000000D+01 Coefficients=  6.1646200000D-01
     Exponent=  1.8277300000D+00 Coefficients=  2.2100600000D-01
 S 3 1.00
     Exponent=  2.0964200000D+01 Coefficients=  1.1466000000D-01
     Exponent=  4.8033100000D+00 Coefficients=  9.1999900000D-01
     Exponent=  1.4593300000D+00 Coefficients= -3.0306800000D-03
 S 1 1.00
     Exponent=  4.8345600000D-01 Coefficients=  1.0000000000D+00
 S 1 1.00
     Exponent=  1.4558500000D-01 Coefficients=  1.0000000000D+00
 S 1 1.00
     Exponent=  4.3800000000D-02 Coefficients=  1.0000000000D+00
 P 3 1.00
     Exponent=  2.0964200000D+01 Coefficients=  4.0248700000D-02
     Exponent=  4.8033100000D+00 Coefficients=  2.3759400000D-01
     Exponent=  1.4593300000D+00 Coefficients=  8.1585400000D-01
 P 1 1.00
     Exponent=  4.8345600000D-01 Coefficients=  1.0000000000D+00
 P 1 1.00
     Exponent=  1.4558500000D-01 Coefficients=  1.0000000000D+00
 P 1 1.00
     Exponent=  4.3800000000D-02 Coefficients=  1.0000000000D+00
 D 1 1.00
     Exponent=  1.2520000000D+00 Coefficients=  1.0000000000D+00
 D 1 1.00
     Exponent=  3.1300000000D-01 Coefficients=  1.0000000000D+00
 F 1 1.00
     Exponent=  8.0000000000D-01 Coefficients=  1.0000000000D+00
 ****
 Ernie: Thresh=  0.10000D-02 Tol=  0.10000D-05 Strict=F.
 There are    23 symmetry adapted cartesian basis functions of AG  symmetry.
 There are     3 symmetry adapted cartesian basis functions of B1G symmetry.
 There are    11 symmetry adapted cartesian basis functions of B2G symmetry.
 There are    11 symmetry adapted cartesian basis functions of B3G symmetry.
 There are     3 symmetry adapted cartesian basis functions of AU  symmetry.
 There are    23 symmetry adapted cartesian basis functions of B1U symmetry.
 There are    11 symmetry adapted cartesian basis functions of B2U symmetry.
 There are    11 symmetry adapted cartesian basis functions of B3U symmetry.
 There are    20 symmetry adapted basis functions of AG  symmetry.
 There are     3 symmetry adapted basis functions of B1G symmetry.
 There are    10 symmetry adapted basis functions of B2G symmetry.
 There are    10 symmetry adapted basis functions of B3G symmetry.
 There are     3 symmetry adapted basis functions of AU  symmetry.
 There are    20 symmetry adapted basis functions of B1U symmetry.
 There are    10 symmetry adapted basis functions of B2U symmetry.
 There are    10 symmetry adapted basis functions of B3U symmetry.
    86 basis functions,   126 primitive gaussians,    96 cartesian basis functions
     7 alpha electrons        7 beta electrons
       nuclear repulsion energy        24.7715055341 Hartrees.
 IExCor= 4336 DFT=T Ex+Corr=M062X ExCW=0 ScaHFX=  0.540000
 ScaDFX=  1.000000  1.000000  1.000000  1.000000 ScalE2=  1.000000  1.000000
 IRadAn=      5 IRanWt=     -1 IRanGd=            0 ICorTp=0 IEmpDi=  4
 NAtoms=    4 NActive=    4 NUniq=    2 SFac= 4.00D+00 NAtFMM=   60 NAOKFM=F Big=F
 Integral buffers will be    131072 words long.
 Raffenetti 2 integral format.
 Two-electron integral symmetry is turned on.
 Leave Link  301 at Mon Apr 19 21:01:24 2021, MaxMem=   104857600 cpu:               0.3 elap:               0.0
 (Enter /opt/g16avx/l302.exe)
 NPDir=0 NMtPBC=     1 NCelOv=     1 NCel=       1 NClECP=     1 NCelD=      1
         NCelK=      1 NCelE2=     1 NClLst=     1 CellRange=     0.0.
 One-electron integrals computed using PRISM.
 One-electron integral symmetry used in STVInt
 NBasis=    86 RedAO= T EigKep=  8.88D-05  NBF=    20     3    10    10     3    20    10    10
 NBsUse=    86 1.00D-06 EigRej= -1.00D+00 NBFU=    20     3    10    10     3    20    10    10
 Precomputing XC quadrature grid using
 IXCGrd= 4 IRadAn=           5 IRanWt=          -1 IRanGd=           0 AccXCQ= 0.00D+00.
 Generated NRdTot=       0 NPtTot=           0 NUsed=           0 NTot=          32
 NSgBfM=    96    96    96    96    96 MxSgAt=     4 MxSgA2=     4.
 Leave Link  302 at Mon Apr 19 21:01:24 2021, MaxMem=   104857600 cpu:               0.7 elap:               0.1
 (Enter /opt/g16avx/l303.exe)
 DipDrv:  MaxL=1.
 Leave Link  303 at Mon Apr 19 21:01:24 2021, MaxMem=   104857600 cpu:               0.2 elap:               0.0
 (Enter /opt/g16avx/l401.exe)
 SCF N**3 symmetry information disabled.
 ExpMin= 4.38D-02 ExpMax= 4.56D+03 ExpMxC= 6.82D+02 IAcc=3 IRadAn=         5 AccDes= 0.00D+00
 Harris functional with IExCor= 1009 and IRadAn=       5 diagonalized for initial guess.
 HarFok:  IExCor= 1009 AccDes= 0.00D+00 IRadAn=         5 IDoV= 1 UseB2=F ITyADJ=14
 ICtDFT=  3500011 ScaDFX=  1.000000  1.000000  1.000000  1.000000
 FoFCou: FMM=F IPFlag=           0 FMFlag=      100000 FMFlg1=           0
         NFxFlg=           0 DoJE=T BraDBF=F KetDBF=T FulRan=T
         wScrn=  0.000000 ICntrl=       500 IOpCl=  0 I1Cent=   200000004 NGrid=           0
         NMat0=    1 NMatS0=      1 NMatT0=    0 NMatD0=    1 NMtDS0=    0 NMtDT0=    0
 Petite list used in FoFCou.
 Harris En= -77.3228667139865    
 JPrj=0 DoOrth=F DoCkMO=F.
 Initial guess orbital symmetries:
       Occupied  (SGG) (SGU) (SGG) (SGU) (SGG) (PIU) (PIU)
       Virtual   (PIG) (PIG) (SGU) (SGG) (SGG) (PIU) (PIU) (SGU)
                 (PIG) (PIG) (SGU) (SGG) (SGU) (SGG) (PIU) (PIU)
                 (DLTG) (DLTG) (PIG) (PIG) (PIU) (PIU) (SGG) (SGU)
                 (SGG) (SGU) (DLTU) (DLTU) (PIG) (PIG) (SGU) (PIU)
                 (PIU) (SGG) (SGU) (PIG) (PIG) (SGG) (SGU) (SGG)
                 (DLTG) (DLTG) (PIU) (PIU) (PHIU) (PHIU) (SGU)
                 (PIG) (PIG) (PIU) (PIU) (SGG) (PHIG) (PHIG) (SGG)
                 (PIG) (PIG) (DLTG) (DLTG) (PIU) (PIU) (DLTU) (DLTU)
                 (SGU) (DLTU) (DLTU) (SGU) (PIG) (PIG) (SGG) (PIU)
                 (PIU) (SGU) (PIG) (PIG) (SGG) (SGU) (SGG) (SGU)
 The electronic state of the initial guess is 1-SGG.
 Leave Link  401 at Mon Apr 19 21:01:24 2021, MaxMem=   104857600 cpu:               0.9 elap:               0.1
 (Enter /opt/g16avx/l502.exe)
 Keep R1 ints in memory in symmetry-blocked form, NReq=13466348.
 FoFCou: FMM=F IPFlag=           0 FMFlag=           0 FMFlg1=           0
         NFxFlg=           0 DoJE=F BraDBF=F KetDBF=F FulRan=T
         wScrn=  0.000000 ICntrl=       600 IOpCl=  0 I1Cent=           0 NGrid=           0
         NMat0=    1 NMatS0=   3741 NMatT0=    0 NMatD0=    1 NMtDS0=    0 NMtDT0=    0
 Petite list used in FoFCou.
 Closed shell SCF:
 Using DIIS extrapolation, IDIIS=  1040.
 NGot=   104857600 LenX=   103898333 LenY=   103888676
 Requested convergence on RMS density matrix=1.00D-08 within 128 cycles.
 Requested convergence on MAX density matrix=1.00D-06.
 Requested convergence on             energy=1.00D-06.
 No special actions if energy rises.

 Cycle   1  Pass 1  IDiag  1:
 E= -77.2352875748656    
 DIIS: error= 6.15D-02 at cycle   1 NSaved=   1.
 NSaved= 1 IEnMin= 1 EnMin= -77.2352875748656     IErMin= 1 ErrMin= 6.15D-02
 ErrMax= 6.15D-02  0.00D+00 EMaxC= 1.00D-01 BMatC= 9.51D-02 BMatP= 9.51D-02
 IDIUse=3 WtCom= 3.85D-01 WtEn= 6.15D-01
 Coeff-Com:  0.100D+01
 Coeff-En:   0.100D+01
 Coeff:      0.100D+01
 Gap=     0.409 Goal=   None    Shift=    0.000
 GapD=    0.409 DampG=2.000 DampE=0.500 DampFc=1.0000 IDamp=-1.
 RMSDP=4.12D-03 MaxDP=7.57D-02              OVMax= 1.65D-01

 Cycle   2  Pass 1  IDiag  1:
 E= -77.2751965609731     Delta-E=       -0.039908986107 Rises=F Damp=F
 DIIS: error= 4.95D-02 at cycle   2 NSaved=   2.
 NSaved= 2 IEnMin= 2 EnMin= -77.2751965609731     IErMin= 2 ErrMin= 4.95D-02
 ErrMax= 4.95D-02  0.00D+00 EMaxC= 1.00D-01 BMatC= 4.58D-02 BMatP= 9.51D-02
 IDIUse=3 WtCom= 5.05D-01 WtEn= 4.95D-01
 Coeff-Com:  0.406D+00 0.594D+00
 Coeff-En:   0.312D+00 0.688D+00
 Coeff:      0.360D+00 0.640D+00
 Gap=     0.395 Goal=   None    Shift=    0.000
 RMSDP=1.89D-03 MaxDP=4.08D-02 DE=-3.99D-02 OVMax= 8.04D-02

 Cycle   3  Pass 1  IDiag  1:
 E= -77.3212081973346     Delta-E=       -0.046011636362 Rises=F Damp=F
 DIIS: error= 6.81D-03 at cycle   3 NSaved=   3.
 NSaved= 3 IEnMin= 3 EnMin= -77.3212081973346     IErMin= 3 ErrMin= 6.81D-03
 ErrMax= 6.81D-03  0.00D+00 EMaxC= 1.00D-01 BMatC= 8.84D-04 BMatP= 4.58D-02
 IDIUse=3 WtCom= 9.32D-01 WtEn= 6.81D-02
 Coeff-Com: -0.577D-02 0.115D+00 0.891D+00
 Coeff-En:   0.000D+00 0.000D+00 0.100D+01
 Coeff:     -0.538D-02 0.107D+00 0.898D+00
 Gap=     0.383 Goal=   None    Shift=    0.000
 RMSDP=2.09D-04 MaxDP=5.22D-03 DE=-4.60D-02 OVMax= 9.45D-03

 Cycle   4  Pass 1  IDiag  1:
 E= -77.3220927425854     Delta-E=       -0.000884545251 Rises=F Damp=F
 DIIS: error= 2.55D-04 at cycle   4 NSaved=   4.
 NSaved= 4 IEnMin= 4 EnMin= -77.3220927425854     IErMin= 4 ErrMin= 2.55D-04
 ErrMax= 2.55D-04  0.00D+00 EMaxC= 1.00D-01 BMatC= 1.40D-06 BMatP= 8.84D-04
 IDIUse=3 WtCom= 9.97D-01 WtEn= 2.55D-03
 Coeff-Com: -0.132D-02-0.569D-02 0.841D-02 0.999D+00
 Coeff-En:   0.000D+00 0.000D+00 0.000D+00 0.100D+01
 Coeff:     -0.131D-02-0.567D-02 0.839D-02 0.999D+00
 Gap=     0.383 Goal=   None    Shift=    0.000
 RMSDP=1.37D-05 MaxDP=2.45D-04 DE=-8.85D-04 OVMax= 5.06D-04

 Cycle   5  Pass 1  IDiag  1:
 E= -77.3220943153210     Delta-E=       -0.000001572736 Rises=F Damp=F
 DIIS: error= 1.73D-05 at cycle   5 NSaved=   5.
 NSaved= 5 IEnMin= 5 EnMin= -77.3220943153210     IErMin= 5 ErrMin= 1.73D-05
 ErrMax= 1.73D-05  0.00D+00 EMaxC= 1.00D-01 BMatC= 1.06D-08 BMatP= 1.40D-06
 IDIUse=1 WtCom= 1.00D+00 WtEn= 0.00D+00
 Coeff-Com: -0.961D-04-0.158D-02-0.665D-02 0.111D+00 0.897D+00
 Coeff:     -0.961D-04-0.158D-02-0.665D-02 0.111D+00 0.897D+00
 Gap=     0.383 Goal=   None    Shift=    0.000
 RMSDP=2.16D-06 MaxDP=4.01D-05 DE=-1.57D-06 OVMax= 4.30D-05

 Cycle   6  Pass 1  IDiag  1:
 E= -77.3220943251981     Delta-E=       -0.000000009877 Rises=F Damp=F
 DIIS: error= 2.41D-06 at cycle   6 NSaved=   6.
 NSaved= 6 IEnMin= 6 EnMin= -77.3220943251981     IErMin= 6 ErrMin= 2.41D-06
 ErrMax= 2.41D-06  0.00D+00 EMaxC= 1.00D-01 BMatC= 1.99D-10 BMatP= 1.06D-08
 IDIUse=1 WtCom= 1.00D+00 WtEn= 0.00D+00
 Coeff-Com:  0.920D-05 0.788D-04-0.233D-03-0.121D-01-0.500D-01 0.106D+01
 Coeff:      0.920D-05 0.788D-04-0.233D-03-0.121D-01-0.500D-01 0.106D+01
 Gap=     0.383 Goal=   None    Shift=    0.000
 RMSDP=7.95D-07 MaxDP=1.48D-05 DE=-9.88D-09 OVMax= 9.43D-06

 Cycle   7  Pass 1  IDiag  1:
 E= -77.3220943256607     Delta-E=       -0.000000000463 Rises=F Damp=F
 DIIS: error= 6.05D-07 at cycle   7 NSaved=   7.
 NSaved= 7 IEnMin= 7 EnMin= -77.3220943256607     IErMin= 7 ErrMin= 6.05D-07
 ErrMax= 6.05D-07  0.00D+00 EMaxC= 1.00D-01 BMatC= 6.74D-12 BMatP= 1.99D-10
 IDIUse=1 WtCom= 1.00D+00 WtEn= 0.00D+00
 Coeff-Com: -0.249D-05 0.131D-04 0.740D-04-0.320D-03-0.154D-01-0.859D-01
 Coeff-Com:  0.110D+01
 Coeff:     -0.249D-05 0.131D-04 0.740D-04-0.320D-03-0.154D-01-0.859D-01
 Coeff:      0.110D+01
 Gap=     0.383 Goal=   None    Shift=    0.000
 RMSDP=8.68D-08 MaxDP=1.18D-06 DE=-4.63D-10 OVMax= 1.72D-06

 Cycle   8  Pass 1  IDiag  1:
 E= -77.3220943256719     Delta-E=       -0.000000000011 Rises=F Damp=F
 DIIS: error= 1.97D-08 at cycle   8 NSaved=   8.
 NSaved= 8 IEnMin= 8 EnMin= -77.3220943256719     IErMin= 8 ErrMin= 1.97D-08
 ErrMax= 1.97D-08  0.00D+00 EMaxC= 1.00D-01 BMatC= 1.16D-14 BMatP= 6.74D-12
 IDIUse=1 WtCom= 1.00D+00 WtEn= 0.00D+00
 Coeff-Com:  0.267D-06-0.141D-05-0.477D-05 0.905D-04 0.197D-02 0.170D-02
 Coeff-Com: -0.104D+00 0.110D+01
 Coeff:      0.267D-06-0.141D-05-0.477D-05 0.905D-04 0.197D-02 0.170D-02
 Coeff:     -0.104D+00 0.110D+01
 Gap=     0.383 Goal=   None    Shift=    0.000
 RMSDP=9.02D-09 MaxDP=1.97D-07 DE=-1.12D-11 OVMax= 8.38D-08

 SCF Done:  E(RM062X) =  -77.3220943257     A.U. after    8 cycles
            NFock=  8  Conv=0.90D-08     -V/T= 2.0047
 KE= 7.695907069641D+01 PE=-2.288406011910D+02 EE= 4.978793063488D+01
 Leave Link  502 at Mon Apr 19 21:01:24 2021, MaxMem=   104857600 cpu:               3.5 elap:               0.5
 (Enter /opt/g16avx/l601.exe)
 Copying SCF densities to generalized density rwf, IOpCl= 0 IROHF=0.

 **********************************************************************

            Population analysis using the SCF density.

 **********************************************************************

 Orbital symmetries:
       Occupied  (SGG) (SGU) (SGG) (SGU) (SGG) (PIU) (PIU)
       Virtual   (SGG) (SGU) (PIG) (PIG) (PIU) (PIU) (SGG) (PIG)
                 (PIG) (SGU) (SGU) (SGG) (SGU) (SGG) (PIU) (PIU)
                 (PIG) (PIG) (DLTG) (DLTG) (SGU) (SGG) (PIU) (PIU)
                 (SGG) (SGU) (DLTU) (DLTU) (PIG) (PIG) (SGU) (PIU)
                 (PIU) (SGG) (SGU) (PIG) (PIG) (SGG) (SGU) (SGG)
                 (DLTG) (DLTG) (SGU) (PHIU) (PHIU) (PIU) (PIU)
                 (PIG) (PIG) (SGG) (PIU) (PIU) (PHIG) (PHIG) (SGG)
                 (PIU) (PIU) (DLTG) (DLTG) (PIG) (PIG) (DLTU) (DLTU)
                 (SGU) (DLTU) (DLTU) (SGU) (PIG) (PIG) (SGG) (PIU)
                 (PIU) (SGU) (PIG) (PIG) (SGG) (SGU) (SGG) (SGU)
 The electronic state is 1-SGG.
 Alpha  occ. eigenvalues --  -10.54933 -10.54664  -0.85191  -0.64807  -0.56719
 Alpha  occ. eigenvalues --   -0.35773  -0.35773
 Alpha virt. eigenvalues --    0.02567   0.02818   0.04419   0.04419   0.07597
 Alpha virt. eigenvalues --    0.07597   0.09213   0.14671   0.14671   0.15404
 Alpha virt. eigenvalues --    0.19478   0.23549   0.37708   0.43011   0.54537
 Alpha virt. eigenvalues --    0.54537   0.62322   0.62322   0.62355   0.62355
 Alpha virt. eigenvalues --    0.65168   0.65558   0.66615   0.66615   0.75458
 Alpha virt. eigenvalues --    0.90328   0.92129   0.92129   0.93559   0.93559
 Alpha virt. eigenvalues --    0.98775   1.27951   1.27951   1.41244   1.54499
 Alpha virt. eigenvalues --    1.55509   1.55509   1.61246   1.85522   2.53175
 Alpha virt. eigenvalues --    2.60585   2.60585   2.63224   2.67010   2.67010
 Alpha virt. eigenvalues --    2.70385   2.70385   2.86862   2.86862   2.91594
 Alpha virt. eigenvalues --    2.98562   2.98562   3.06821   3.06821   3.24402
 Alpha virt. eigenvalues --    3.27498   3.27498   3.27955   3.27956   3.29995
 Alpha virt. eigenvalues --    3.29995   3.31654   3.31654   3.51714   3.73930
 Alpha virt. eigenvalues --    3.73931   4.06783   4.09169   4.09169   4.42635
 Alpha virt. eigenvalues --    4.56837   4.56837   5.48629   5.52151   5.52151
 Alpha virt. eigenvalues --    6.71177   6.95108  23.62884  25.57729
          Condensed to atoms (all electrons):
               1          2          3          4
     1  C    4.738961   1.010904   0.033754   0.385195
     2  C    1.010904   4.738961   0.385195   0.033754
     3  H    0.033754   0.385195   0.411850   0.000387
     4  H    0.385195   0.033754   0.000387   0.411850
 Mulliken charges:
               1
     1  C   -0.168814
     2  C   -0.168814
     3  H    0.168814
     4  H    0.168814
 Sum of Mulliken charges =  -0.00000
 Mulliken charges with hydrogens summed into heavy atoms:
               1
     1  C   -0.000000
     2  C   -0.000000
 Electronic spatial extent (au):  <R**2>=             60.9471
 Charge=              0.0000 electrons
 Dipole moment (field-independent basis, Debye):
    X=             -0.0000    Y=              0.0000    Z=              0.0000  Tot=              0.0000
 Quadrupole moment (field-independent basis, Debye-Ang):
   XX=            -13.7986   YY=            -13.7986   ZZ=             -6.9153
   XY=             -0.0000   XZ=             -0.0000   YZ=              0.0000
 Traceless Quadrupole moment (field-independent basis, Debye-Ang):
   XX=             -2.2944   YY=             -2.2944   ZZ=              4.5889
   XY=             -0.0000   XZ=             -0.0000   YZ=              0.0000
 Octapole moment (field-independent basis, Debye-Ang**2):
  XXX=             -0.0000  YYY=             -0.0000  ZZZ=              0.0000  XYY=             -0.0000
  XXY=             -0.0000  XXZ=              0.0000  XZZ=             -0.0000  YZZ=             -0.0000
  YYZ=             -0.0000  XYZ=              0.0000
 Hexadecapole moment (field-independent basis, Debye-Ang**3):
 XXXX=            -17.0716 YYYY=            -17.0716 ZZZZ=            -37.4133 XXXY=             -0.0000
 XXXZ=              0.0000 YYYX=             -0.0000 YYYZ=              0.0000 ZZZX=              0.0000
 ZZZY=              0.0000 XXYY=             -5.6905 XXZZ=            -12.6292 YYZZ=            -12.6292
 XXYZ=              0.0000 YYXZ=              0.0000 ZZXY=             -0.0000
 N-N= 2.477150553406D+01 E-N=-2.288406011828D+02  KE= 7.695907069641D+01
 No NMR shielding tensors so no spin-rotation constants.
 Leave Link  601 at Mon Apr 19 21:01:24 2021, MaxMem=   104857600 cpu:               0.8 elap:               0.1
 (Enter /opt/g16avx/l801.exe)
 DoSCS=F DFT=T ScalE2(SS,OS)=  1.000000  1.000000
 Range of M.O.s used for correlation:     1    86
 NBasis=    86 NAE=     7 NBE=     7 NFC=     0 NFV=     0
 NROrb=     86 NOA=     7 NOB=     7 NVA=    79 NVB=    79

 **** Warning!!: The largest alpha MO coefficient is  0.41637008D+02

 Leave Link  801 at Mon Apr 19 21:01:24 2021, MaxMem=   104857600 cpu:               0.2 elap:               0.0
 (Enter /opt/g16avx/l914.exe)
 RHF ground state
 Doing stability rather than CIS.
 Keep R1 and R2 ints in memory in symmetry-blocked form, NReq=28991609.
 FoFCou: FMM=F IPFlag=           0 FMFlag=           0 FMFlg1=           0
         NFxFlg=           0 DoJE=F BraDBF=F KetDBF=F FulRan=T
         wScrn=  0.000000 ICntrl=       600 IOpCl=  0 I1Cent=           0 NGrid=           0
         NMat0=    1 NMatS0=   3741 NMatT0=    0 NMatD0=    1 NMtDS0=    0 NMtDT0=    0
 Petite list used in FoFCou.
 MDV=   104857600 DFT=T DoStab=T Mixed=T DoRPA=F DoScal=F NonHer=F
 Making orbital integer symmetry assigments:
 Orbital symmetries:
       Occupied  (SGG) (SGU) (SGG) (SGU) (SGG) (PIU) (PIU)
       Virtual   (SGG) (SGU) (PIG) (PIG) (PIU) (PIU) (SGG) (PIG)
                 (PIG) (SGU) (SGU) (SGG) (SGU) (SGG) (PIU) (PIU)
                 (PIG) (PIG) (DLTG) (DLTG) (SGU) (SGG) (PIU) (PIU)
                 (SGG) (SGU) (DLTU) (DLTU) (PIG) (PIG) (SGU) (PIU)
                 (PIU) (SGG) (SGU) (PIG) (PIG) (SGG) (SGU) (SGG)
                 (DLTG) (DLTG) (SGU) (PHIU) (PHIU) (PIU) (PIU)
                 (PIG) (PIG) (SGG) (PIU) (PIU) (PHIG) (PHIG) (SGG)
                 (PIU) (PIU) (DLTG) (DLTG) (PIG) (PIG) (DLTU) (DLTU)
                 (SGU) (DLTU) (DLTU) (SGU) (PIG) (PIG) (SGG) (PIU)
                 (PIU) (SGU) (PIG) (PIG) (SGG) (SGU) (SGG) (SGU)
    48 initial guesses have been made.
 Convergence on wavefunction:    0.001000000000000
 Davidson Disk Diagonalization:  ConvIn= 1.00D-03 SkipCon=T Conv= 1.00D-03.
 Max sub-space:  2000 roots to seek:    48 dimension of matrix:         1106
 Iteration     1 Dimension    48 NMult     0 NNew     48
 CISAX will form    48 AO SS matrices at one time.
 NMat=    48 NSing=    24 JSym2X= 2.
 New state      1 was old state     12
 Excitation Energies [eV] at current iteration:
 Root      1 :     4.559313492309815
 Root      2 :     6.146427957761844
 Root      3 :     6.146966665445883
 Root      4 :     7.213562417041866
 Root      5 :     7.213562417041921
 Root      6 :     7.275205096383187
 Root      7 :     7.275663656608419
 Root      8 :     8.122031932378173
 Root      9 :     8.122031932424131
 Root     10 :     8.128843099956391
 Root     11 :     8.140682966545409
 Root     12 :     8.169058621236525
 Root     13 :     8.175665105334961
 Root     14 :     8.346067166607652
 Root     15 :     8.346067166643477
 Root     16 :     9.205887849362474
 Root     17 :     9.205912687610690
 Root     18 :     9.218757335344593
 Root     19 :     9.218757335345101
 Root     20 :     9.389199527428122
 Root     21 :     9.389240710921085
 Root     22 :     9.389267376300692
 Root     23 :     9.438699122300854
 Root     24 :     9.657711778641277
 Root     25 :     9.675857390239926
 Root     26 :     9.771778430912631
 Root     27 :    10.203531170108469
 Root     28 :    10.755542971822301
 Root     29 :    10.779653591419645
 Root     30 :    10.779653591419670
 Root     31 :    10.821220867498784
 Root     32 :    10.821338059414090
 Root     33 :    11.039132159460806
 Root     34 :    11.039132159510164
 Root     35 :    11.070583944511196
 Root     36 :    11.070776500554452
 Root     37 :    11.179384809728175
 Root     38 :    11.543600616387554
 Root     39 :    11.543600616431339
 Root     40 :    12.503930266038900
 Root     41 :    12.503930266185598
 Root     42 :    12.647891334326754
 Root     43 :    12.647891334454874
 Root     44 :    13.199826262359496
 Root     45 :    13.433820265955026
 Root     46 :    13.645852023907432
 Root     47 :    14.308388410676431
 Root     48 :    25.528057092733469
 Iteration     2 Dimension    96 NMult    48 NNew     48
 CISAX will form    48 AO SS matrices at one time.
 NMat=    48 NSing=    24 JSym2X= 2.
 Root      1 not converged, maximum delta is    0.065718739235310
 Excitation Energies [eV] at current iteration:
 Root      1 :     4.059211511089130   Change is   -0.500101981220685
 Root      2 :     6.074064937965326   Change is   -0.072363019796518
 Root      3 :     6.074643664304930   Change is   -0.072323001140953
 Root      4 :     7.183782655791637   Change is   -0.091422440591550
 Root      5 :     7.184210430481705   Change is   -0.091453226126714
 Root      6 :     7.193991252616672   Change is   -0.019571164425249
 Root      7 :     7.193991252645052   Change is   -0.019571164396815
 Root      8 :     8.054053721586653   Change is   -0.067978210791521
 Root      9 :     8.054053721636544   Change is   -0.067978210787587
 Root     10 :     8.067103570376315   Change is   -0.073579396169095
 Root     11 :     8.067270207827130   Change is   -0.101788413409395
 Root     12 :     8.109869189926124   Change is   -0.018973910030267
 Root     13 :     8.109996543657637   Change is   -0.065668561677324
 Root     14 :     8.290287897539262   Change is   -0.055779269068390
 Root     15 :     8.290287897577864   Change is   -0.055779269065613
 Root     16 :     9.144209168070985   Change is   -0.061678681291490
 Root     17 :     9.144244829373319   Change is   -0.061667858237372
 Root     18 :     9.162405936312014   Change is   -0.226793591116109
 Root     19 :     9.162710413156347   Change is   -0.275988709144506
 Root     20 :     9.188882525937267   Change is   -0.029874809407326
 Root     21 :     9.188882525937800   Change is   -0.029874809407302
 Root     22 :     9.280441047608878   Change is   -0.108799663312207
 Root     23 :     9.280488904762279   Change is   -0.108778471538413
 Root     24 :     9.509515479615899   Change is   -0.148196299025378
 Root     25 :     9.519712183040216   Change is   -0.156145207199709
 Root     26 :     9.548307330176232   Change is   -0.223471100736399
 Root     27 :     9.973434947831860   Change is   -0.230096222276609
 Root     28 :    10.250713670662639   Change is   -0.928671139065535
 Root     29 :    10.629510572211355   Change is   -0.126032399610945
 Root     30 :    10.701614596714034   Change is   -0.337517562746772
 Root     31 :    10.701614596752368   Change is   -0.337517562757794
 Root     32 :    10.731685264812119   Change is   -0.047968326607552
 Root     33 :    10.731685264813651   Change is   -0.047968326605994
 Root     34 :    10.767612345627047   Change is   -0.053608521871738
 Root     35 :    10.767752485697224   Change is   -0.053585573716867
 Root     36 :    11.000516251883385   Change is   -0.070067692627811
 Root     37 :    11.000714236321679   Change is   -0.070062264232772
 Root     38 :    11.276040448406958   Change is   -0.267560167980597
 Root     39 :    11.276040448460371   Change is   -0.267560167970968
 Root     40 :    12.383614189231627   Change is   -0.120316076807271
 Root     41 :    12.383614189375843   Change is   -0.120316076809755
 Root     42 :    12.445739239558241   Change is   -0.202152094768512
 Root     43 :    12.445739239700634   Change is   -0.202152094754240
 Root     44 :    13.053122058801463   Change is   -0.146704203558033
 Root     45 :    13.248668401855529   Change is   -0.397183622051903
 Root     46 :    13.301287028205111   Change is   -0.132533237749915
 Root     47 :    13.987290991199831   Change is   -0.321097419476599
 Root     48 :    14.243332181827553
 Iteration     3 Dimension   102 NMult    96 NNew      6
 CISAX will form     6 AO SS matrices at one time.
 NMat=     6 NSing=     3 JSym2X= 2.
 Root      1 not converged, maximum delta is    0.007032307500104
 Excitation Energies [eV] at current iteration:
 Root      1 :     4.046586522045065   Change is   -0.012624989044065
 Root      2 :     6.073884610843406   Change is   -0.000180327121920
 Root      3 :     6.074463347733678   Change is   -0.000180316571253
 Root      4 :     7.183675996414818   Change is   -0.000106659376819
 Root      5 :     7.184103796918187   Change is   -0.000106633563518
 Root      6 :     7.193986782862130   Change is   -0.000004469782921
 Iteration     4 Dimension   108 NMult   102 NNew      6
 CISAX will form     6 AO SS matrices at one time.
 NMat=     6 NSing=     3 JSym2X= 2.
 Root      1 not converged, maximum delta is    0.001618928455628
 Excitation Energies [eV] at current iteration:
 Root      1 :     4.045981396907834   Change is   -0.000605125137231
 Root      2 :     6.073884076028049   Change is   -0.000000534815357
 Root      3 :     6.074462812875879   Change is   -0.000000534857798
 Root      4 :     7.183675765301458   Change is   -0.000000231113360
 Root      5 :     7.184103565590095   Change is   -0.000000231328092
 Root      6 :     7.193986777648790   Change is   -0.000000005213341
 Iteration     5 Dimension   111 NMult   108 NNew      3
 CISAX will form     3 AO SS matrices at one time.
 NMat=     3 NSing=     0 JSym2X= 2.
 Root      1 has converged.
 Excitation Energies [eV] at current iteration:
 Root      1 :     4.045957084549221   Change is   -0.000024312358613
 Root      2 :     6.073884074638398   Change is   -0.000000001389651
 Root      3 :     6.074462811490635   Change is   -0.000000001385244
 Root      4 :     7.183675765301452   Change is   -0.000000000000006
 Root      5 :     7.184103565590106   Change is    0.000000000000011
 Root      6 :     7.193986777648800   Change is    0.000000000000011
 Convergence achieved on expansion vectors.
 ***********************************************************************
 Stability analysis using <AA,BB:AA,BB> singles matrix:
 ***********************************************************************
 1PDM for each excited state written to RWF  633
 Ground to excited state transition densities written to RWF  633

 Eigenvectors of the stability matrix:
 
 Excited state symmetry could not be determined.
 Eigenvector   1:      Triplet-?Sym  Eigenvalue= 0.1486862  <S**2>=2.000
       6 -> 10        -0.39922
       6 -> 16         0.26555
       7 -> 11         0.39922
       7 -> 15        -0.26555
 The wavefunction is stable under the perturbations considered.
 Leave Link  914 at Mon Apr 19 21:01:47 2021, MaxMem=   104857600 cpu:             160.7 elap:              23.0
 (Enter /opt/g16avx/l508.exe)
 The wavefunction is already stable.
 Leave Link  508 at Mon Apr 19 21:01:47 2021, MaxMem=   104857600 cpu:               0.0 elap:               0.0
 (Enter /opt/g16avx/l601.exe)
 Copying SCF densities to generalized density rwf, IOpCl= 0 IROHF=0.

 **********************************************************************

            Population analysis using the SCF density.

 **********************************************************************

 Orbital symmetries:
       Occupied  (SGG) (SGU) (SGG) (SGU) (SGG) (PIU) (PIU)
       Virtual   (SGG) (SGU) (PIG) (PIG) (PIU) (PIU) (SGG) (PIG)
                 (PIG) (SGU) (SGU) (SGG) (SGU) (SGG) (PIU) (PIU)
                 (PIG) (PIG) (DLTG) (DLTG) (SGU) (SGG) (PIU) (PIU)
                 (SGG) (SGU) (DLTU) (DLTU) (PIG) (PIG) (SGU) (PIU)
                 (PIU) (SGG) (SGU) (PIG) (PIG) (SGG) (SGU) (SGG)
                 (DLTG) (DLTG) (SGU) (PHIU) (PHIU) (PIU) (PIU)
                 (PIG) (PIG) (SGG) (PIU) (PIU) (PHIG) (PHIG) (SGG)
                 (PIU) (PIU) (DLTG) (DLTG) (PIG) (PIG) (DLTU) (DLTU)
                 (SGU) (DLTU) (DLTU) (SGU) (PIG) (PIG) (SGG) (PIU)
                 (PIU) (SGU) (PIG) (PIG) (SGG) (SGU) (SGG) (SGU)
 The electronic state is 1-SGG.
 Alpha  occ. eigenvalues --  -10.54933 -10.54664  -0.85191  -0.64807  -0.56719
 Alpha  occ. eigenvalues --   -0.35773  -0.35773
 Alpha virt. eigenvalues --    0.02567   0.02818   0.04419   0.04419   0.07597
 Alpha virt. eigenvalues --    0.07597   0.09213   0.14671   0.14671   0.15404
 Alpha virt. eigenvalues --    0.19478   0.23549   0.37708   0.43011   0.54537
 Alpha virt. eigenvalues --    0.54537   0.62322   0.62322   0.62355   0.62355
 Alpha virt. eigenvalues --    0.65168   0.65558   0.66615   0.66615   0.75458
 Alpha virt. eigenvalues --    0.90328   0.92129   0.92129   0.93559   0.93559
 Alpha virt. eigenvalues --    0.98775   1.27951   1.27951   1.41244   1.54499
 Alpha virt. eigenvalues --    1.55509   1.55509   1.61246   1.85522   2.53175
 Alpha virt. eigenvalues --    2.60585   2.60585   2.63224   2.67010   2.67010
 Alpha virt. eigenvalues --    2.70385   2.70385   2.86862   2.86862   2.91594
 Alpha virt. eigenvalues --    2.98562   2.98562   3.06821   3.06821   3.24402
 Alpha virt. eigenvalues --    3.27498   3.27498   3.27955   3.27956   3.29995
 Alpha virt. eigenvalues --    3.29995   3.31654   3.31654   3.51714   3.73930
 Alpha virt. eigenvalues --    3.73931   4.06783   4.09169   4.09169   4.42635
 Alpha virt. eigenvalues --    4.56837   4.56837   5.48629   5.52151   5.52151
 Alpha virt. eigenvalues --    6.71177   6.95108  23.62884  25.57729
          Condensed to atoms (all electrons):
               1          2          3          4
     1  C    4.738961   1.010904   0.033754   0.385195
     2  C    1.010904   4.738961   0.385195   0.033754
     3  H    0.033754   0.385195   0.411850   0.000387
     4  H    0.385195   0.033754   0.000387   0.411850
 Mulliken charges:
               1
     1  C   -0.168814
     2  C   -0.168814
     3  H    0.168814
     4  H    0.168814
 Sum of Mulliken charges =  -0.00000
 Mulliken charges with hydrogens summed into heavy atoms:
               1
     1  C   -0.000000
     2  C   -0.000000
 Electronic spatial extent (au):  <R**2>=             60.9471
 Charge=              0.0000 electrons
 Dipole moment (field-independent basis, Debye):
    X=             -0.0000    Y=              0.0000    Z=              0.0000  Tot=              0.0000
 Quadrupole moment (field-independent basis, Debye-Ang):
   XX=            -13.7986   YY=            -13.7986   ZZ=             -6.9153
   XY=             -0.0000   XZ=             -0.0000   YZ=              0.0000
 Traceless Quadrupole moment (field-independent basis, Debye-Ang):
   XX=             -2.2944   YY=             -2.2944   ZZ=              4.5889
   XY=             -0.0000   XZ=             -0.0000   YZ=              0.0000
 Octapole moment (field-independent basis, Debye-Ang**2):
  XXX=             -0.0000  YYY=             -0.0000  ZZZ=              0.0000  XYY=             -0.0000
  XXY=             -0.0000  XXZ=              0.0000  XZZ=             -0.0000  YZZ=             -0.0000
  YYZ=             -0.0000  XYZ=              0.0000
 Hexadecapole moment (field-independent basis, Debye-Ang**3):
 XXXX=            -17.0716 YYYY=            -17.0716 ZZZZ=            -37.4133 XXXY=             -0.0000
 XXXZ=              0.0000 YYYX=             -0.0000 YYYZ=              0.0000 ZZZX=              0.0000
 ZZZY=              0.0000 XXYY=             -5.6905 XXZZ=            -12.6292 YYZZ=            -12.6292
 XXYZ=              0.0000 YYXZ=              0.0000 ZZXY=             -0.0000
 N-N= 2.477150553406D+01 E-N=-2.288406011828D+02  KE= 7.695907069641D+01
 No NMR shielding tensors so no spin-rotation constants.
 Leave Link  601 at Mon Apr 19 21:01:48 2021, MaxMem=   104857600 cpu:               0.8 elap:               0.1
 (Enter /opt/g16avx/l9999.exe)

 Test job not archived.
 1\1\GINC-VERTEX\Stability\RM062X\Gen\C2H2\XRAY\19-Apr-2021\0\\#P M062X
 /GEN Integral=UltraFineGrid SCF=NoSymm Stable=(RExt, Opt) IOp(1/33=1)\
 \Database calculations.\\0,1\C,0,0.,0.,0.\C,0,0.,0.,1.20314\H,0,0.,0.,
 2.26575\H,0,0.,0.,-1.06261\\Version=ES64L-G16RevA.03\State=1-SGG\HF=-7
 7.3220943\RMSD=9.019e-09\Dipole=0.,0.,0.\Quadrupole=-1.7058597,-1.7058
 597,3.4117194,0.,0.,0.\PG=D*H [C*(H1C1.C1H1)]\\@


 TO ERR IS HUMAN - AND TO BLAME IT ON A COMPUTER IS EVEN MORE SO.
 Job cpu time:       0 days  0 hours  2 minutes 49.3 seconds.
 Elapsed time:       0 days  0 hours  0 minutes 24.2 seconds.
 File lengths (MBytes):  RWF=     58 Int=      0 D2E=      0 Chk=      3 Scr=      1
 Normal termination of Gaussian 16 at Mon Apr 19 21:01:48 2021.
