 Entering Gaussian System, Link 0=/s/ls4/users/knvvv/bin/g16sse/g16
 Input=data/database/M062X--def2-QZVPPD--13_Li_AE18.gjf
 Output=data/database/M062X--def2-QZVPPD--13_Li_AE18.log
 Initial command:
 /s/ls4/users/knvvv/bin/g16sse/l1.exe "/s/ls4/users/knvvv/bin/scratch/Gau-39917.inp" -scrdir="/s/ls4/users/knvvv/bin/scratch/"
 Entering Link 1 = /s/ls4/users/knvvv/bin/g16sse/l1.exe PID=     39918.
  
 Copyright (c) 1988,1990,1992,1993,1995,1998,2003,2009,2016,
            Gaussian, Inc.  All Rights Reserved.
  
 This is part of the Gaussian(R) 16 program.  It is based on
 the Gaussian(R) 09 system (copyright 2009, Gaussian, Inc.),
 the Gaussian(R) 03 system (copyright 2003, Gaussian, Inc.),
 the Gaussian(R) 98 system (copyright 1998, Gaussian, Inc.),
 the Gaussian(R) 94 system (copyright 1995, Gaussian, Inc.),
 the Gaussian 92(TM) system (copyright 1992, Gaussian, Inc.),
 the Gaussian 90(TM) system (copyright 1990, Gaussian, Inc.),
 the Gaussian 88(TM) system (copyright 1988, Gaussian, Inc.),
 the Gaussian 86(TM) system (copyright 1986, Carnegie Mellon
 University), and the Gaussian 82(TM) system (copyright 1983,
 Carnegie Mellon University). Gaussian is a federally registered
 trademark of Gaussian, Inc.
  
 This software contains proprietary and confidential information,
 including trade secrets, belonging to Gaussian, Inc.
  
 This software is provided under written license and may be
 used, copied, transmitted, or stored only in accord with that
 written license.
  
 The following legend is applicable only to US Government
 contracts under FAR:
  
                    RESTRICTED RIGHTS LEGEND
  
 Use, reproduction and disclosure by the US Government is
 subject to restrictions as set forth in subparagraphs (a)
 and (c) of the Commercial Computer Software - Restricted
 Rights clause in FAR 52.227-19.
  
 Gaussian, Inc.
 340 Quinnipiac St., Bldg. 40, Wallingford CT 06492
  
  
 ---------------------------------------------------------------
 Warning -- This program may not be used in any manner that
 competes with the business of Gaussian, Inc. or will provide
 assistance to any competitor of Gaussian, Inc.  The licensee
 of this program is prohibited from giving any competitor of
 Gaussian, Inc. access to this program.  By using this program,
 the user acknowledges that Gaussian, Inc. is engaged in the
 business of creating and licensing software in the field of
 computational chemistry and represents and warrants to the
 licensee that it is not a competitor of Gaussian, Inc. and that
 it will not use this program in any manner prohibited above.
 ---------------------------------------------------------------
  

 Cite this work as:
 Gaussian 16, Revision A.03,
 M. J. Frisch, G. W. Trucks, H. B. Schlegel, G. E. Scuseria, 
 M. A. Robb, J. R. Cheeseman, G. Scalmani, V. Barone, 
 G. A. Petersson, H. Nakatsuji, X. Li, M. Caricato, A. V. Marenich, 
 J. Bloino, B. G. Janesko, R. Gomperts, B. Mennucci, H. P. Hratchian, 
 J. V. Ortiz, A. F. Izmaylov, J. L. Sonnenberg, D. Williams-Young, 
 F. Ding, F. Lipparini, F. Egidi, J. Goings, B. Peng, A. Petrone, 
 T. Henderson, D. Ranasinghe, V. G. Zakrzewski, J. Gao, N. Rega, 
 G. Zheng, W. Liang, M. Hada, M. Ehara, K. Toyota, R. Fukuda, 
 J. Hasegawa, M. Ishida, T. Nakajima, Y. Honda, O. Kitao, H. Nakai, 
 T. Vreven, K. Throssell, J. A. Montgomery, Jr., J. E. Peralta, 
 F. Ogliaro, M. J. Bearpark, J. J. Heyd, E. N. Brothers, K. N. Kudin, 
 V. N. Staroverov, T. A. Keith, R. Kobayashi, J. Normand, 
 K. Raghavachari, A. P. Rendell, J. C. Burant, S. S. Iyengar, 
 J. Tomasi, M. Cossi, J. M. Millam, M. Klene, C. Adamo, R. Cammi, 
 J. W. Ochterski, R. L. Martin, K. Morokuma, O. Farkas, 
 J. B. Foresman, and D. J. Fox, Gaussian, Inc., Wallingford CT, 2016.
 
 ******************************************
 Gaussian 16:  ES64L-G16RevA.03 25-Dec-2016
                17-Apr-2021 
 ******************************************
 %RWF=temp18_4901,70GB
 %nprocshared=48
 Will use up to   48 processors via shared memory.
 Default route: MaxDisk=80GB
 ----------------------------------------------------------------------
 #P M062X/GEN Integral=UltraFineGrid SCF=NoSymm Stable=(RExt, Opt) IOp(
 1/33=1)
 ----------------------------------------------------------------------
 1/33=1,38=1,172=1/1;
 2/12=2,17=6,18=5,40=1/2;
 3/5=7,11=2,25=1,30=1,74=-55,75=-5/1,2,3;
 4/9=2/1;
 5/5=2,38=5/2;
 6/7=2,8=2,9=2,10=2,28=1/1;
 8/6=1,10=90,11=11/1;
 9/8=-3,42=1,46=1/14;
 5/5=2,8=3,17=40,38=5/8(-2);
 6/7=2,8=2,9=2,10=2,28=1/1;
 99/5=1,9=1/99;
 Leave Link    1 at Sat Apr 17 08:44:05 2021, MaxMem=           0 cpu:              11.1 elap:               0.3
 (Enter /s/ls4/users/knvvv/bin/g16sse/l101.exe)
 ONIOM data not found on unit 2.
 ----------------------
 Database calculations.
 ----------------------
 TstMul:  ICh=     0
 TstMul:  Mul=     2
 TstMul:  ICh=     0
 TstMul:  Mul=     2
 Symbolic Z-matrix:
 Charge =  0 Multiplicity = 2
 Li                    0.        0.        0. 
 
 RdStrC is calling ZToCFu for IStruc=1 NZ=     1.
 PrtBox:  NBox=     1 Levels=  0 BoxLen=    8.00 SMaxX=        0.00
          Shift=            0.000000            0.000000            0.000000
 Box      1 Number                   0 centers from      1 to      1:
 After GenITR:
 ITRead=  0
 MicOpt= -1
 ITRead=  0
 MicOpt= -1
 NAtoms=      1 NQM=        1 NQMF=       0 NMMI=      0 NMMIF=      0
                NMic=       0 NMicF=      0.
                    Isotopes and Nuclear Properties:
 (Nuclear quadrupole moments (NQMom) in fm**2, nuclear magnetic moments (NMagM)
  in nuclear magnetons)

  Atom         1
 IAtWgt=           7
 AtmWgt=   7.0160045
 NucSpn=           3
 AtZEff=  -0.0000000
 NQMom=   -4.0100000
 NMagM=    3.2564240
 AtZNuc=   3.0000000
 No MM parameters found.
 Leave Link  101 at Sat Apr 17 08:44:06 2021, MaxMem=   104857600 cpu:               8.8 elap:               0.2
 (Enter /s/ls4/users/knvvv/bin/g16sse/l202.exe)
                          Input orientation:                          
 ---------------------------------------------------------------------
 Center     Atomic      Atomic             Coordinates (Angstroms)
 Number     Number       Type             X           Y           Z
 ---------------------------------------------------------------------
      1          3           0        0.000000    0.000000    0.000000
 ---------------------------------------------------------------------
 Stoichiometry    Li(2)
 Framework group  OH[O(Li)]
 Deg. of freedom     0
 Full point group                 OH      NOp  48
 Largest Abelian subgroup         D2H     NOp   8
 Largest concise Abelian subgroup C1      NOp   1
                         Standard orientation:                         
 ---------------------------------------------------------------------
 Center     Atomic      Atomic             Coordinates (Angstroms)
 Number     Number       Type             X           Y           Z
 ---------------------------------------------------------------------
      1          3           0        0.000000    0.000000    0.000000
 ---------------------------------------------------------------------
 Leave Link  202 at Sat Apr 17 08:44:06 2021, MaxMem=   104857600 cpu:              35.5 elap:               0.8
 (Enter /s/ls4/users/knvvv/bin/g16sse/l301.exe)
 General basis read from cards:  (5D, 7F)
 Centers:       1
 S 9 1.00
     Exponent=  1.4853977085D+04 Coefficients=  4.2711388815D-05
     Exponent=  2.2252236477D+03 Coefficients=  3.3235310800D-04
     Exponent=  5.0488739008D+02 Coefficients=  1.7518436649D-03
     Exponent=  1.4245847548D+02 Coefficients=  7.3477995850D-03
     Exponent=  4.6315599580D+01 Coefficients=  2.5899837683D-02
     Exponent=  1.6655335474D+01 Coefficients=  7.6670682431D-02
     Exponent=  6.4331186199D+00 Coefficients=  1.8276075765D-01
     Exponent=  2.6027043858D+00 Coefficients=  3.2655434038D-01
     Exponent=  1.0897245405D+00 Coefficients=  3.7000429828D-01
 S 2 1.00
     Exponent=  4.4236595971D+00 Coefficients=  1.1120987921D-01
     Exponent=  1.2356394990D+00 Coefficients=  7.9987335862D-01
 S 1 1.00
     Exponent=  4.6067470602D-01 Coefficients=  1.0000000000D+00
 S 1 1.00
     Exponent=  9.6617166955D-02 Coefficients=  1.0000000000D+00
 S 1 1.00
     Exponent=  4.5915452296D-02 Coefficients=  1.0000000000D+00
 S 1 1.00
     Exponent=  2.1140048730D-02 Coefficients=  1.0000000000D+00
 P 3 1.00
     Exponent=  3.2605109206D+00 Coefficients=  8.6504749023D-03
     Exponent=  6.5003043115D-01 Coefficients=  4.7614123736D-02
     Exponent=  1.6941671073D-01 Coefficients=  2.1001138000D-01
 P 1 1.00
     Exponent=  3.3270000000D+00 Coefficients=  1.0000000000D+00
 P 1 1.00
     Exponent=  5.5732343767D-02 Coefficients=  1.0000000000D+00
 P 1 1.00
     Exponent=  2.0489959241D-02 Coefficients=  1.0000000000D+00
 D 1 1.00
     Exponent=  2.3000000000D-01 Coefficients=  1.0000000000D+00
 D 1 1.00
     Exponent=  7.5700000000D-02 Coefficients=  1.0000000000D+00
 F 1 1.00
     Exponent=  1.3500000000D-01 Coefficients=  1.0000000000D+00
 ****
 Ernie: Thresh=  0.10000D-02 Tol=  0.10000D-05 Strict=F.
 There are    12 symmetry adapted cartesian basis functions of AG  symmetry.
 There are     2 symmetry adapted cartesian basis functions of B1G symmetry.
 There are     2 symmetry adapted cartesian basis functions of B2G symmetry.
 There are     2 symmetry adapted cartesian basis functions of B3G symmetry.
 There are     1 symmetry adapted cartesian basis functions of AU  symmetry.
 There are     7 symmetry adapted cartesian basis functions of B1U symmetry.
 There are     7 symmetry adapted cartesian basis functions of B2U symmetry.
 There are     7 symmetry adapted cartesian basis functions of B3U symmetry.
 There are    10 symmetry adapted basis functions of AG  symmetry.
 There are     2 symmetry adapted basis functions of B1G symmetry.
 There are     2 symmetry adapted basis functions of B2G symmetry.
 There are     2 symmetry adapted basis functions of B3G symmetry.
 There are     1 symmetry adapted basis functions of AU  symmetry.
 There are     6 symmetry adapted basis functions of B1U symmetry.
 There are     6 symmetry adapted basis functions of B2U symmetry.
 There are     6 symmetry adapted basis functions of B3U symmetry.
    35 basis functions,    55 primitive gaussians,    40 cartesian basis functions
     2 alpha electrons        1 beta electrons
       nuclear repulsion energy         0.0000000000 Hartrees.
 IExCor= 4336 DFT=T Ex+Corr=M062X ExCW=0 ScaHFX=  0.540000
 ScaDFX=  1.000000  1.000000  1.000000  1.000000 ScalE2=  1.000000  1.000000
 IRadAn=      5 IRanWt=     -1 IRanGd=            0 ICorTp=0 IEmpDi=  4
 NAtoms=    1 NActive=    1 NUniq=    1 SFac= 1.00D+00 NAtFMM=   60 NAOKFM=F Big=F
 Integral buffers will be    131072 words long.
 Raffenetti 2 integral format.
 Two-electron integral symmetry is turned on.
 Leave Link  301 at Sat Apr 17 08:44:07 2021, MaxMem=   104857600 cpu:               9.8 elap:               0.2
 (Enter /s/ls4/users/knvvv/bin/g16sse/l302.exe)
 NPDir=0 NMtPBC=     1 NCelOv=     1 NCel=       1 NClECP=     1 NCelD=      1
         NCelK=      1 NCelE2=     1 NClLst=     1 CellRange=     0.0.
 One-electron integrals computed using PRISM.
 One-electron integral symmetry used in STVInt
 PrsmSu:  requested number of processors reduced to:  13 ShMem   1 Linda.
 NBasis=    35 RedAO= T EigKep=  1.05D-02  NBF=    10     2     2     2     1     6     6     6
 NBsUse=    35 1.00D-06 EigRej= -1.00D+00 NBFU=    10     2     2     2     1     6     6     6
 Precomputing XC quadrature grid using
 IXCGrd= 4 IRadAn=           5 IRanWt=          -1 IRanGd=           0 AccXCQ= 0.00D+00.
 Generated NRdTot=       0 NPtTot=           0 NUsed=           0 NTot=          32
 NSgBfM=    40    40    40    40    40 MxSgAt=     1 MxSgA2=     1.
 Leave Link  302 at Sat Apr 17 08:44:08 2021, MaxMem=   104857600 cpu:              63.3 elap:               1.5
 (Enter /s/ls4/users/knvvv/bin/g16sse/l303.exe)
 DipDrv:  MaxL=1.
 Leave Link  303 at Sat Apr 17 08:44:09 2021, MaxMem=   104857600 cpu:              13.5 elap:               0.3
 (Enter /s/ls4/users/knvvv/bin/g16sse/l401.exe)
 SCF N**3 symmetry information disabled.
 ExpMin= 2.05D-02 ExpMax= 1.49D+04 ExpMxC= 4.63D+01 IAcc=3 IRadAn=         5 AccDes= 0.00D+00
 Harris functional with IExCor= 1009 and IRadAn=       5 diagonalized for initial guess.
 HarFok:  IExCor= 1009 AccDes= 0.00D+00 IRadAn=         5 IDoV= 1 UseB2=F ITyADJ=14
 ICtDFT=  3500011 ScaDFX=  1.000000  1.000000  1.000000  1.000000
 FoFCou: FMM=F IPFlag=           0 FMFlag=      100000 FMFlg1=           0
         NFxFlg=           0 DoJE=T BraDBF=F KetDBF=T FulRan=T
         wScrn=  0.000000 ICntrl=       500 IOpCl=  0 I1Cent=   200000004 NGrid=           0
         NMat0=    1 NMatS0=      1 NMatT0=    0 NMatD0=    1 NMtDS0=    0 NMtDT0=    0
 Petite list used in FoFCou.
 Harris En= -7.45080406023605    
 JPrj=0 DoOrth=F DoCkMO=F.
 Initial guess orbital symmetries:
 Alpha Orbitals:
       Occupied  (A1G) (A1G)
       Virtual   (T1U) (T1U) (T1U) (A1G) (T1U) (T1U) (T1U) (T2G)
                 (T2G) (T2G) (EG) (EG) (A1G) (T1U) (T1U) (T1U)
                 (T2U) (T2U) (T2U) (A2U) (T1U) (T1U) (T1U) (T2G)
                 (T2G) (T2G) (EG) (EG) (A1G) (T1U) (T1U) (T1U)
                 (A1G)
 Beta  Orbitals:
       Occupied  (A1G)
       Virtual   (A1G) (T1U) (T1U) (T1U) (A1G) (T1U) (T1U) (T1U)
                 (T2G) (T2G) (T2G) (EG) (EG) (A1G) (T1U) (T1U)
                 (T1U) (T2U) (T2U) (T2U) (A2U) (T1U) (T1U) (T1U)
                 (T2G) (T2G) (T2G) (EG) (EG) (A1G) (T1U) (T1U)
                 (T1U) (A1G)
 The electronic state of the initial guess is 2-A1G.
 Initial guess <Sx>= 0.0000 <Sy>= 0.0000 <Sz>= 0.5000 <S**2>= 0.7500 S= 0.5000
 Leave Link  401 at Sat Apr 17 08:44:12 2021, MaxMem=   104857600 cpu:             146.1 elap:               3.2
 (Enter /s/ls4/users/knvvv/bin/g16sse/l502.exe)
 Keep R1 and R2 ints in memory in symmetry-blocked form, NReq=41661735.
 FoFCou: FMM=F IPFlag=           0 FMFlag=           0 FMFlg1=           0
         NFxFlg=           0 DoJE=F BraDBF=F KetDBF=F FulRan=T
         wScrn=  0.000000 ICntrl=       600 IOpCl=  0 I1Cent=           0 NGrid=           0
         NMat0=    1 NMatS0=    630 NMatT0=    0 NMatD0=    1 NMtDS0=    0 NMtDT0=    0
 Petite list used in FoFCou.
 UHF open shell SCF:
 Using DIIS extrapolation, IDIIS=  1040.
 NGot=   104857600 LenX=   104791608 LenY=   104789567
 Requested convergence on RMS density matrix=1.00D-08 within 128 cycles.
 Requested convergence on MAX density matrix=1.00D-06.
 Requested convergence on             energy=1.00D-06.
 No special actions if energy rises.

 Cycle   1  Pass 1  IDiag  1:
 E= -7.48097293713513    
 DIIS: error= 7.94D-03 at cycle   1 NSaved=   1.
 NSaved= 1 IEnMin= 1 EnMin= -7.48097293713513     IErMin= 1 ErrMin= 7.94D-03
 ErrMax= 7.94D-03  0.00D+00 EMaxC= 1.00D-01 BMatC= 3.14D-03 BMatP= 3.14D-03
 IDIUse=3 WtCom= 9.21D-01 WtEn= 7.94D-02
 Coeff-Com:  0.100D+01
 Coeff-En:   0.100D+01
 Coeff:      0.100D+01
 Gap=     0.148 Goal=   None    Shift=    0.000
 Gap=     2.484 Goal=   None    Shift=    0.000
 GapD=    0.148 DampG=1.000 DampE=1.000 DampFc=1.0000 IDamp=-1.
 RMSDP=5.54D-03 MaxDP=1.77D-01              OVMax= 4.32D-02

 Cycle   2  Pass 1  IDiag  1:
 E= -7.48219648963019     Delta-E=       -0.001223552495 Rises=F Damp=F
 DIIS: error= 1.67D-03 at cycle   2 NSaved=   2.
 NSaved= 2 IEnMin= 2 EnMin= -7.48219648963019     IErMin= 2 ErrMin= 1.67D-03
 ErrMax= 1.67D-03  0.00D+00 EMaxC= 1.00D-01 BMatC= 7.43D-05 BMatP= 3.14D-03
 IDIUse=3 WtCom= 9.83D-01 WtEn= 1.67D-02
 Coeff-Com: -0.856D-01 0.109D+01
 Coeff-En:   0.000D+00 0.100D+01
 Coeff:     -0.842D-01 0.108D+01
 Gap=     0.151 Goal=   None    Shift=    0.000
 Gap=     2.353 Goal=   None    Shift=    0.000
 RMSDP=3.99D-04 MaxDP=8.74D-03 DE=-1.22D-03 OVMax= 6.84D-03

 Cycle   3  Pass 1  IDiag  1:
 E= -7.48221962874172     Delta-E=       -0.000023139112 Rises=F Damp=F
 DIIS: error= 1.67D-04 at cycle   3 NSaved=   3.
 NSaved= 3 IEnMin= 3 EnMin= -7.48221962874172     IErMin= 3 ErrMin= 1.67D-04
 ErrMax= 1.67D-04  0.00D+00 EMaxC= 1.00D-01 BMatC= 9.17D-07 BMatP= 7.43D-05
 IDIUse=3 WtCom= 9.98D-01 WtEn= 1.67D-03
 Coeff-Com: -0.132D-01 0.512D-01 0.962D+00
 Coeff-En:   0.000D+00 0.000D+00 0.100D+01
 Coeff:     -0.131D-01 0.512D-01 0.962D+00
 Gap=     0.151 Goal=   None    Shift=    0.000
 Gap=     2.364 Goal=   None    Shift=    0.000
 DSYEVD-2 returned Info=          71 IAlg= 4 N=    35 NDim=    35 NE2=     2993986 trying  DSYEV.
 RMSDP=1.06D-04 MaxDP=2.57D-03 DE=-2.31D-05 OVMax= 1.81D-03

 Cycle   4  Pass 1  IDiag  1:
 E= -7.48222063293635     Delta-E=       -0.000001004195 Rises=F Damp=F
 DIIS: error= 4.99D-05 at cycle   4 NSaved=   4.
 NSaved= 4 IEnMin= 4 EnMin= -7.48222063293635     IErMin= 4 ErrMin= 4.99D-05
 ErrMax= 4.99D-05  0.00D+00 EMaxC= 1.00D-01 BMatC= 5.12D-08 BMatP= 9.17D-07
 IDIUse=1 WtCom= 1.00D+00 WtEn= 0.00D+00
 Coeff-Com:  0.465D-02-0.282D-01-0.250D+00 0.127D+01
 Coeff:      0.465D-02-0.282D-01-0.250D+00 0.127D+01
 Gap=     0.151 Goal=   None    Shift=    0.000
 Gap=     2.360 Goal=   None    Shift=    0.000
 RMSDP=5.58D-05 MaxDP=1.50D-03 DE=-1.00D-06 OVMax= 8.39D-04

 Cycle   5  Pass 1  IDiag  1:
 E= -7.48222076859171     Delta-E=       -0.000000135655 Rises=F Damp=F
 DIIS: error= 1.35D-05 at cycle   5 NSaved=   5.
 NSaved= 5 IEnMin= 5 EnMin= -7.48222076859171     IErMin= 5 ErrMin= 1.35D-05
 ErrMax= 1.35D-05  0.00D+00 EMaxC= 1.00D-01 BMatC= 3.60D-09 BMatP= 5.12D-08
 IDIUse=1 WtCom= 1.00D+00 WtEn= 0.00D+00
 Coeff-Com: -0.515D-03 0.338D-02 0.527D-01-0.420D+00 0.136D+01
 Coeff:     -0.515D-03 0.338D-02 0.527D-01-0.420D+00 0.136D+01
 Gap=     0.151 Goal=   None    Shift=    0.000
 Gap=     2.360 Goal=   None    Shift=    0.000
 RMSDP=1.07D-05 MaxDP=2.76D-04 DE=-1.36D-07 OVMax= 1.79D-04

 Cycle   6  Pass 1  IDiag  1:
 E= -7.48222077335991     Delta-E=       -0.000000004768 Rises=F Damp=F
 DIIS: error= 1.68D-06 at cycle   6 NSaved=   6.
 NSaved= 6 IEnMin= 6 EnMin= -7.48222077335991     IErMin= 6 ErrMin= 1.68D-06
 ErrMax= 1.68D-06  0.00D+00 EMaxC= 1.00D-01 BMatC= 4.54D-11 BMatP= 3.60D-09
 IDIUse=1 WtCom= 1.00D+00 WtEn= 0.00D+00
 Coeff-Com:  0.178D-04 0.133D-04-0.891D-03 0.386D-01-0.165D+00 0.113D+01
 Coeff:      0.178D-04 0.133D-04-0.891D-03 0.386D-01-0.165D+00 0.113D+01
 Gap=     0.151 Goal=   None    Shift=    0.000
 Gap=     2.360 Goal=   None    Shift=    0.000
 RMSDP=8.85D-07 MaxDP=2.64D-05 DE=-4.77D-09 OVMax= 9.17D-06

 Cycle   7  Pass 1  IDiag  1:
 E= -7.48222077338813     Delta-E=       -0.000000000028 Rises=F Damp=F
 DIIS: error= 1.79D-07 at cycle   7 NSaved=   7.
 NSaved= 7 IEnMin= 7 EnMin= -7.48222077338813     IErMin= 7 ErrMin= 1.79D-07
 ErrMax= 1.79D-07  0.00D+00 EMaxC= 1.00D-01 BMatC= 1.22D-12 BMatP= 4.54D-11
 IDIUse=1 WtCom= 1.00D+00 WtEn= 0.00D+00
 Coeff-Com:  0.137D-04-0.131D-03-0.106D-02 0.262D-02-0.582D-02-0.167D+00
 Coeff-Com:  0.117D+01
 Coeff:      0.137D-04-0.131D-03-0.106D-02 0.262D-02-0.582D-02-0.167D+00
 Coeff:      0.117D+01
 Gap=     0.151 Goal=   None    Shift=    0.000
 Gap=     2.360 Goal=   None    Shift=    0.000
 RMSDP=3.84D-08 MaxDP=9.25D-07 DE=-2.82D-11 OVMax= 1.08D-06

 Cycle   8  Pass 1  IDiag  1:
 E= -7.48222077338853     Delta-E=       -0.000000000000 Rises=F Damp=F
 DIIS: error= 1.06D-08 at cycle   8 NSaved=   8.
 NSaved= 8 IEnMin= 8 EnMin= -7.48222077338853     IErMin= 8 ErrMin= 1.06D-08
 ErrMax= 1.06D-08  0.00D+00 EMaxC= 1.00D-01 BMatC= 2.23D-15 BMatP= 1.22D-12
 IDIUse=1 WtCom= 1.00D+00 WtEn= 0.00D+00
 Coeff-Com: -0.110D-05 0.129D-04 0.985D-04-0.126D-03 0.761D-03 0.196D-01
 Coeff-Com: -0.145D+00 0.112D+01
 Coeff:     -0.110D-05 0.129D-04 0.985D-04-0.126D-03 0.761D-03 0.196D-01
 Coeff:     -0.145D+00 0.112D+01
 Gap=     0.151 Goal=   None    Shift=    0.000
 Gap=     2.360 Goal=   None    Shift=    0.000
 RMSDP=4.17D-09 MaxDP=1.02D-07 DE=-4.04D-13 OVMax= 1.07D-07

 SCF Done:  E(UM062X) =  -7.48222077339     A.U. after    8 cycles
            NFock=  8  Conv=0.42D-08     -V/T= 2.0058
 <Sx>= 0.0000 <Sy>= 0.0000 <Sz>= 0.5000 <S**2>= 0.7500 S= 0.5000
 <L.S>= 0.000000000000E+00
 KE= 7.439333656584D+00 PE=-1.715589494008D+01 EE= 2.234340510107D+00
 Annihilation of the first spin contaminant:
 S**2 before annihilation     0.7500,   after     0.7500
 Leave Link  502 at Sat Apr 17 08:44:56 2021, MaxMem=   104857600 cpu:            2098.4 elap:              44.7
 (Enter /s/ls4/users/knvvv/bin/g16sse/l601.exe)
 Copying SCF densities to generalized density rwf, IOpCl= 1 IROHF=0.

 **********************************************************************

            Population analysis using the SCF density.

 **********************************************************************

 Orbital symmetries:
 Alpha Orbitals:
       Occupied  (A1G) (A1G)
       Virtual   (T1U) (T1U) (T1U) (A1G) (T1U) (T1U) (T1U) (T2G)
                 (T2G) (T2G) (EG) (EG) (A1G) (T1U) (T1U) (T1U)
                 (A2U) (T2U) (T2U) (T2U) (T1U) (T1U) (T1U) (T2G)
                 (T2G) (T2G) (EG) (EG) (A1G) (T1U) (T1U) (T1U)
                 (A1G)
 Beta  Orbitals:
       Occupied  (A1G)
       Virtual   (A1G) (T1U) (T1U) (T1U) (A1G) (T1U) (T1U) (T1U)
                 (A1G) (T1U) (T1U) (T1U) (EG) (EG) (T2G) (T2G)
                 (T2G) (EG) (EG) (T2G) (T2G) (T2G) (T1U) (T1U)
                 (T1U) (A2U) (T2U) (T2U) (T2U) (A1G) (T1U) (T1U)
                 (T1U) (A1G)
 The electronic state is 2-A1G.
 Alpha  occ. eigenvalues --   -2.19453  -0.15354
 Alpha virt. eigenvalues --   -0.00292  -0.00292  -0.00292   0.05718   0.07571
 Alpha virt. eigenvalues --    0.07571   0.07571   0.16746   0.16746   0.16746
 Alpha virt. eigenvalues --    0.16746   0.16746   0.22539   0.31234   0.31234
 Alpha virt. eigenvalues --    0.31234   0.44416   0.44416   0.44416   0.44416
 Alpha virt. eigenvalues --    0.44416   0.44416   0.44416   0.58239   0.58239
 Alpha virt. eigenvalues --    0.58239   0.58239   0.58239   1.31965   5.57334
 Alpha virt. eigenvalues --    5.57334   5.57334   8.92052
  Beta  occ. eigenvalues --   -2.18789
  Beta virt. eigenvalues --    0.17237   0.17402   0.17402   0.17402   0.27918
  Beta virt. eigenvalues --    0.34099   0.34099   0.34099   0.52404   0.57589
  Beta virt. eigenvalues --    0.57589   0.57589   0.57994   0.57994   0.57994
  Beta virt. eigenvalues --    0.57994   0.57994   0.92942   0.92942   0.92942
  Beta virt. eigenvalues --    0.92942   0.92942   0.93553   0.93553   0.93553
  Beta virt. eigenvalues --    0.93553   0.93553   0.93553   0.93553   1.55092
  Beta virt. eigenvalues --    5.58636   5.58636   5.58636   9.00131
          Condensed to atoms (all electrons):
               1
     1  Li   3.000000
          Atomic-Atomic Spin Densities.
               1
     1  Li   1.000000
 Mulliken charges and spin densities:
               1          2
     1  Li  -0.000000   1.000000
 Sum of Mulliken charges =  -0.00000   1.00000
 Mulliken charges and spin densities with hydrogens summed into heavy atoms:
               1          2
     1  Li  -0.000000   1.000000
 Electronic spatial extent (au):  <R**2>=             18.1433
 Charge=             -0.0000 electrons
 Dipole moment (field-independent basis, Debye):
    X=             -0.0000    Y=              0.0000    Z=              0.0000  Tot=              0.0000
 Quadrupole moment (field-independent basis, Debye-Ang):
   XX=             -8.1344   YY=             -8.1344   ZZ=             -8.1344
   XY=              0.0000   XZ=             -0.0000   YZ=              0.0000
 Traceless Quadrupole moment (field-independent basis, Debye-Ang):
   XX=              0.0000   YY=              0.0000   ZZ=              0.0000
   XY=              0.0000   XZ=             -0.0000   YZ=              0.0000
 Octapole moment (field-independent basis, Debye-Ang**2):
  XXX=             -0.0000  YYY=              0.0000  ZZZ=             -0.0000  XYY=             -0.0000
  XXY=              0.0000  XXZ=             -0.0000  XZZ=             -0.0000  YZZ=              0.0000
  YYZ=             -0.0000  XYZ=              0.0000
 Hexadecapole moment (field-independent basis, Debye-Ang**3):
 XXXX=            -42.4730 YYYY=            -42.4730 ZZZZ=            -42.4730 XXXY=             -0.0000
 XXXZ=             -0.0000 YYYX=             -0.0000 YYYZ=              0.0000 ZZZX=             -0.0000
 ZZZY=              0.0000 XXYY=            -14.1577 XXZZ=            -14.1577 YYZZ=            -14.1577
 XXYZ=              0.0000 YYXZ=             -0.0000 ZZXY=             -0.0000
 N-N= 0.000000000000D+00 E-N=-1.715589489037D+01  KE= 7.439333656584D+00
                          Isotropic Fermi Contact Couplings
        Atom                 a.u.       MegaHertz       Gauss      10(-4) cm-1
     1  Li(7)              0.27252     473.44808     168.93805     157.92528
 --------------------------------------------------------
       Center         ----  Spin Dipole Couplings  ----
                      3XX-RR        3YY-RR        3ZZ-RR
 --------------------------------------------------------
     1   Atom        0.000000      0.000000      0.000000
 --------------------------------------------------------
                        XY            XZ            YZ
 --------------------------------------------------------
     1   Atom        0.000000      0.000000      0.000000
 --------------------------------------------------------


 ---------------------------------------------------------------------------------
              Anisotropic Spin Dipole Couplings in Principal Axis System
 ---------------------------------------------------------------------------------

       Atom             a.u.   MegaHertz   Gauss  10(-4) cm-1        Axes

              Baa     0.0000     0.000     0.000     0.000  1.0000  0.0000  0.0000
     1 Li(7)  Bbb     0.0000     0.000     0.000     0.000 -0.0000  1.0000  0.0000
              Bcc     0.0000     0.000     0.000     0.000  0.0000  0.0000  1.0000
 

 ---------------------------------------------------------------------------------

 No NMR shielding tensors so no spin-rotation constants.
 Leave Link  601 at Sat Apr 17 08:45:00 2021, MaxMem=   104857600 cpu:             152.4 elap:               3.3
 (Enter /s/ls4/users/knvvv/bin/g16sse/l801.exe)
 DoSCS=F DFT=T ScalE2(SS,OS)=  1.000000  1.000000
 Range of M.O.s used for correlation:     1    35
 NBasis=    35 NAE=     2 NBE=     1 NFC=     0 NFV=     0
 NROrb=     35 NOA=     2 NOB=     1 NVA=    33 NVB=    34
 Leave Link  801 at Sat Apr 17 08:45:00 2021, MaxMem=   104857600 cpu:               6.9 elap:               0.2
 (Enter /s/ls4/users/knvvv/bin/g16sse/l914.exe)
 UHF ground state
 Doing stability rather than CIS.
 Keep R1 and R2 ints in memory in symmetry-blocked form, NReq=53681611.
 FoFCou: FMM=F IPFlag=           0 FMFlag=           0 FMFlg1=           0
         NFxFlg=           0 DoJE=F BraDBF=F KetDBF=F FulRan=T
         wScrn=  0.000000 ICntrl=       600 IOpCl=  0 I1Cent=           0 NGrid=           0
         NMat0=    1 NMatS0=    630 NMatT0=    0 NMatD0=    1 NMtDS0=    0 NMtDT0=    0
 Petite list used in FoFCou.
 MDV=   104857600 DFT=T DoStab=T Mixed=T DoRPA=F DoScal=F NonHer=F
 Making orbital integer symmetry assigments:
 Orbital symmetries:
 Alpha Orbitals:
       Occupied  (A1G) (A1G)
       Virtual   (T1U) (T1U) (T1U) (A1G) (T1U) (T1U) (T1U) (T2G)
                 (T2G) (T2G) (EG) (EG) (A1G) (T1U) (T1U) (T1U)
                 (A2U) (T2U) (T2U) (T2U) (T1U) (T1U) (T1U) (T2G)
                 (T2G) (T2G) (EG) (EG) (A1G) (T1U) (T1U) (T1U)
                 (A1G)
 Beta  Orbitals:
       Occupied  (A1G)
       Virtual   (A1G) (T1U) (T1U) (T1U) (A1G) (T1U) (T1U) (T1U)
                 (A1G) (T1U) (T1U) (T1U) (EG) (EG) (T2G) (T2G)
                 (T2G) (EG) (EG) (T2G) (T2G) (T2G) (T1U) (T1U)
                 (T1U) (A2U) (T2U) (T2U) (T2U) (A1G) (T1U) (T1U)
                 (T1U) (A1G)
    24 initial guesses have been made.
 Convergence on wavefunction:    0.001000000000000
 Davidson Disk Diagonalization:  ConvIn= 1.00D-03 SkipCon=T Conv= 1.00D-03.
 Max sub-space:   200 roots to seek:    24 dimension of matrix:          100
 Iteration     1 Dimension    24 NMult     0 NNew     24
 CISAX will form    24 AO SS matrices at one time.
 NMat=    24 NSing=    24 JSym2X= 2.
 New state      1 was old state      2
 Excitation Energies [eV] at current iteration:
 Root      1 :     2.425373977161195
 Root      2 :     2.425373977163244
 Root      3 :     2.425373977166434
 Root      4 :     3.721464355433771
 Root      5 :     4.313742589619257
 Root      6 :     4.313742589621003
 Root      7 :     4.313742589623317
 Root      8 :     5.888742578289142
 Root      9 :     5.898330146608629
 Root     10 :     5.898330146609838
 Root     11 :     5.898330146740915
 Root     12 :     5.898330146741816
 Root     13 :     8.773730582074537
 Root     14 :     9.881376647828649
 Root     15 :     9.881376647830081
 Root     16 :     9.881376647831368
 Root     17 :    12.993852304778520
 Root     18 :    12.993852305097950
 Root     19 :    12.993852305098890
 Root     20 :    12.993852305099220
 Root     21 :    12.993852305124120
 Root     22 :    12.993852305124760
 Root     23 :    12.993852305124800
 Root     24 :    19.633398970527820
 Iteration     2 Dimension    48 NMult    24 NNew     24
 CISAX will form    24 AO SS matrices at one time.
 NMat=    24 NSing=    24 JSym2X= 2.
 Root      1 not converged, maximum delta is    0.009466220138765
 Excitation Energies [eV] at current iteration:
 Root      1 :     2.413902504239811   Change is   -0.011471472921384
 Root      2 :     2.413902504241848   Change is   -0.011471472921396
 Root      3 :     2.413902504244990   Change is   -0.011471472921444
 Root      4 :     3.690546878747516   Change is   -0.030917476686256
 Root      5 :     4.301828123007088   Change is   -0.011914466612169
 Root      6 :     4.301828123008883   Change is   -0.011914466612120
 Root      7 :     4.301828123011293   Change is   -0.011914466612024
 Root      8 :     5.887666541488145   Change is   -0.001076036800997
 Root      9 :     5.887679062619616   Change is   -0.010651083989013
 Root     10 :     5.887679062620812   Change is   -0.010651083989025
 Root     11 :     5.887679062746035   Change is   -0.010651083994880
 Root     12 :     5.887679062746906   Change is   -0.010651083994910
 Root     13 :     8.654446312260516   Change is   -0.119284269814022
 Root     14 :     9.868697868468429   Change is   -0.012678779360220
 Root     15 :     9.868697868469896   Change is   -0.012678779360184
 Root     16 :     9.868697868471129   Change is   -0.012678779360239
 Root     17 :    12.989688920149450   Change is   -0.004163384629072
 Root     18 :    12.989688920468820   Change is   -0.004163384629126
 Root     19 :    12.989688920469850   Change is   -0.004163384629048
 Root     20 :    12.989688920470050   Change is   -0.004163384629163
 Root     21 :    12.989688920494730   Change is   -0.004163384629392
 Root     22 :    12.989688920495340   Change is   -0.004163384629410
 Root     23 :    12.989688920495360   Change is   -0.004163384629447
 Root     24 :    19.591504241522440   Change is   -0.041894729005376
 Iteration     3 Dimension    51 NMult    48 NNew      3
 CISAX will form     3 AO SS matrices at one time.
 NMat=     3 NSing=     3 JSym2X= 2.
 Root      1 has converged.
 Excitation Energies [eV] at current iteration:
 Root      1 :     2.413843613848708   Change is   -0.000058890391103
 Root      2 :     2.413843613850744   Change is   -0.000058890391103
 Root      3 :     2.413843613853910   Change is   -0.000058890391079
 Convergence achieved on expansion vectors.
 ***********************************************************************
 Stability analysis using <AA,BB:AA,BB> singles matrix:
 ***********************************************************************
 1PDM for each excited state written to RWF  633
 Ground to excited state transition densities written to RWF  633

 Eigenvectors of the stability matrix:
 
 Eigenvector   1:  2.000-T1U  Eigenvalue= 0.0887071  <S**2>=0.750
      2A ->  3A        0.17833
      2A ->  4A        0.72566
      2A ->  5A        0.65945
 The wavefunction is stable under the perturbations considered.
 Leave Link  914 at Sat Apr 17 08:45:05 2021, MaxMem=   104857600 cpu:             234.9 elap:               5.0
 (Enter /s/ls4/users/knvvv/bin/g16sse/l508.exe)
 The wavefunction is already stable.
 Leave Link  508 at Sat Apr 17 08:45:05 2021, MaxMem=   104857600 cpu:               2.0 elap:               0.1
 (Enter /s/ls4/users/knvvv/bin/g16sse/l601.exe)
 Copying SCF densities to generalized density rwf, IOpCl= 1 IROHF=0.

 **********************************************************************

            Population analysis using the SCF density.

 **********************************************************************

 Orbital symmetries:
 Alpha Orbitals:
       Occupied  (A1G) (A1G)
       Virtual   (T1U) (T1U) (T1U) (A1G) (T1U) (T1U) (T1U) (T2G)
                 (T2G) (T2G) (EG) (EG) (A1G) (T1U) (T1U) (T1U)
                 (A2U) (T2U) (T2U) (T2U) (T1U) (T1U) (T1U) (T2G)
                 (T2G) (T2G) (EG) (EG) (A1G) (T1U) (T1U) (T1U)
                 (A1G)
 Beta  Orbitals:
       Occupied  (A1G)
       Virtual   (A1G) (T1U) (T1U) (T1U) (A1G) (T1U) (T1U) (T1U)
                 (A1G) (T1U) (T1U) (T1U) (EG) (EG) (T2G) (T2G)
                 (T2G) (EG) (EG) (T2G) (T2G) (T2G) (T1U) (T1U)
                 (T1U) (A2U) (T2U) (T2U) (T2U) (A1G) (T1U) (T1U)
                 (T1U) (A1G)
 The electronic state is 2-A1G.
 Alpha  occ. eigenvalues --   -2.19453  -0.15354
 Alpha virt. eigenvalues --   -0.00292  -0.00292  -0.00292   0.05718   0.07571
 Alpha virt. eigenvalues --    0.07571   0.07571   0.16746   0.16746   0.16746
 Alpha virt. eigenvalues --    0.16746   0.16746   0.22539   0.31234   0.31234
 Alpha virt. eigenvalues --    0.31234   0.44416   0.44416   0.44416   0.44416
 Alpha virt. eigenvalues --    0.44416   0.44416   0.44416   0.58239   0.58239
 Alpha virt. eigenvalues --    0.58239   0.58239   0.58239   1.31965   5.57334
 Alpha virt. eigenvalues --    5.57334   5.57334   8.92052
  Beta  occ. eigenvalues --   -2.18789
  Beta virt. eigenvalues --    0.17237   0.17402   0.17402   0.17402   0.27918
  Beta virt. eigenvalues --    0.34099   0.34099   0.34099   0.52404   0.57589
  Beta virt. eigenvalues --    0.57589   0.57589   0.57994   0.57994   0.57994
  Beta virt. eigenvalues --    0.57994   0.57994   0.92942   0.92942   0.92942
  Beta virt. eigenvalues --    0.92942   0.92942   0.93553   0.93553   0.93553
  Beta virt. eigenvalues --    0.93553   0.93553   0.93553   0.93553   1.55092
  Beta virt. eigenvalues --    5.58636   5.58636   5.58636   9.00131
          Condensed to atoms (all electrons):
               1
     1  Li   3.000000
          Atomic-Atomic Spin Densities.
               1
     1  Li   1.000000
 Mulliken charges and spin densities:
               1          2
     1  Li  -0.000000   1.000000
 Sum of Mulliken charges =  -0.00000   1.00000
 Mulliken charges and spin densities with hydrogens summed into heavy atoms:
               1          2
     1  Li  -0.000000   1.000000
 Electronic spatial extent (au):  <R**2>=             18.1433
 Charge=             -0.0000 electrons
 Dipole moment (field-independent basis, Debye):
    X=             -0.0000    Y=              0.0000    Z=              0.0000  Tot=              0.0000
 Quadrupole moment (field-independent basis, Debye-Ang):
   XX=             -8.1344   YY=             -8.1344   ZZ=             -8.1344
   XY=              0.0000   XZ=             -0.0000   YZ=              0.0000
 Traceless Quadrupole moment (field-independent basis, Debye-Ang):
   XX=              0.0000   YY=              0.0000   ZZ=              0.0000
   XY=              0.0000   XZ=             -0.0000   YZ=              0.0000
 Octapole moment (field-independent basis, Debye-Ang**2):
  XXX=             -0.0000  YYY=              0.0000  ZZZ=             -0.0000  XYY=             -0.0000
  XXY=              0.0000  XXZ=             -0.0000  XZZ=             -0.0000  YZZ=              0.0000
  YYZ=             -0.0000  XYZ=              0.0000
 Hexadecapole moment (field-independent basis, Debye-Ang**3):
 XXXX=            -42.4730 YYYY=            -42.4730 ZZZZ=            -42.4730 XXXY=             -0.0000
 XXXZ=             -0.0000 YYYX=             -0.0000 YYYZ=              0.0000 ZZZX=             -0.0000
 ZZZY=              0.0000 XXYY=            -14.1577 XXZZ=            -14.1577 YYZZ=            -14.1577
 XXYZ=              0.0000 YYXZ=             -0.0000 ZZXY=             -0.0000
 N-N= 0.000000000000D+00 E-N=-1.715589489037D+01  KE= 7.439333656584D+00
                          Isotropic Fermi Contact Couplings
        Atom                 a.u.       MegaHertz       Gauss      10(-4) cm-1
     1  Li(7)              0.27252     473.44808     168.93805     157.92528
 --------------------------------------------------------
       Center         ----  Spin Dipole Couplings  ----
                      3XX-RR        3YY-RR        3ZZ-RR
 --------------------------------------------------------
     1   Atom        0.000000      0.000000      0.000000
 --------------------------------------------------------
                        XY            XZ            YZ
 --------------------------------------------------------
     1   Atom        0.000000      0.000000      0.000000
 --------------------------------------------------------


 ---------------------------------------------------------------------------------
              Anisotropic Spin Dipole Couplings in Principal Axis System
 ---------------------------------------------------------------------------------

       Atom             a.u.   MegaHertz   Gauss  10(-4) cm-1        Axes

              Baa     0.0000     0.000     0.000     0.000  1.0000  0.0000  0.0000
     1 Li(7)  Bbb     0.0000     0.000     0.000     0.000 -0.0000  1.0000  0.0000
              Bcc     0.0000     0.000     0.000     0.000  0.0000  0.0000  1.0000
 

 ---------------------------------------------------------------------------------

 No NMR shielding tensors so no spin-rotation constants.
 Leave Link  601 at Sat Apr 17 08:45:08 2021, MaxMem=   104857600 cpu:             130.3 elap:               2.8
 (Enter /s/ls4/users/knvvv/bin/g16sse/l9999.exe)

 Test job not archived.
 1\1\GINC-N184\Stability\UM062X\Gen\Li1(2)\KNVVV\17-Apr-2021\0\\#P M062
 X/GEN Integral=UltraFineGrid SCF=NoSymm Stable=(RExt, Opt) IOp(1/33=1)
 \\Database calculations.\\0,2\Li,0,0.,0.,0.\\Version=ES64L-G16RevA.03\
 State=2-A1G\HF=-7.4822208\S2=0.750026\S2-1=0.\S2A=0.75\RMSD=4.170e-09\
 Dipole=0.,0.,0.\Quadrupole=0.,0.,0.,0.,0.,0.\PG=OH [O(Li1)]\\@


 IF AT FIRST YOU DON'T SUCCEED, TRY LOOKING IN 
 THE WASTEBASKET FOR THE DIRECTIONS.
 Job cpu time:       0 days  0 hours 48 minutes 39.6 seconds.
 Elapsed time:       0 days  0 hours  1 minutes  2.7 seconds.
 File lengths (MBytes):  RWF=      6 Int=      0 D2E=      0 Chk=      1 Scr=      1
 Normal termination of Gaussian 16 at Sat Apr 17 08:45:08 2021.
