 Entering Gaussian System, Link 0=/s/ls4/groups/g0130/bin/g16/g16
 Input=M062X--def2-QZVP--ISOL24_i4e.gjf
 Output=M062X--def2-QZVP--ISOL24_i4e.log
 Initial command:
 /s/ls4/groups/g0130/bin/g16/l1.exe "/dev/shm/scratch_knvvv/Gau-17054.inp" -scrdir="/dev/shm/scratch_knvvv/"
 Entering Link 1 = /s/ls4/groups/g0130/bin/g16/l1.exe PID=     17055.
  
 Copyright (c) 1988,1990,1992,1993,1995,1998,2003,2009,2016,
            Gaussian, Inc.  All Rights Reserved.
  
 This is part of the Gaussian(R) 16 program.  It is based on
 the Gaussian(R) 09 system (copyright 2009, Gaussian, Inc.),
 the Gaussian(R) 03 system (copyright 2003, Gaussian, Inc.),
 the Gaussian(R) 98 system (copyright 1998, Gaussian, Inc.),
 the Gaussian(R) 94 system (copyright 1995, Gaussian, Inc.),
 the Gaussian 92(TM) system (copyright 1992, Gaussian, Inc.),
 the Gaussian 90(TM) system (copyright 1990, Gaussian, Inc.),
 the Gaussian 88(TM) system (copyright 1988, Gaussian, Inc.),
 the Gaussian 86(TM) system (copyright 1986, Carnegie Mellon
 University), and the Gaussian 82(TM) system (copyright 1983,
 Carnegie Mellon University). Gaussian is a federally registered
 trademark of Gaussian, Inc.
  
 This software contains proprietary and confidential information,
 including trade secrets, belonging to Gaussian, Inc.
  
 This software is provided under written license and may be
 used, copied, transmitted, or stored only in accord with that
 written license.
  
 The following legend is applicable only to US Government
 contracts under FAR:
  
                    RESTRICTED RIGHTS LEGEND
  
 Use, reproduction and disclosure by the US Government is
 subject to restrictions as set forth in subparagraphs (a)
 and (c) of the Commercial Computer Software - Restricted
 Rights clause in FAR 52.227-19.
  
 Gaussian, Inc.
 340 Quinnipiac St., Bldg. 40, Wallingford CT 06492
  
  
 ---------------------------------------------------------------
 Warning -- This program may not be used in any manner that
 competes with the business of Gaussian, Inc. or will provide
 assistance to any competitor of Gaussian, Inc.  The licensee
 of this program is prohibited from giving any competitor of
 Gaussian, Inc. access to this program.  By using this program,
 the user acknowledges that Gaussian, Inc. is engaged in the
 business of creating and licensing software in the field of
 computational chemistry and represents and warrants to the
 licensee that it is not a competitor of Gaussian, Inc. and that
 it will not use this program in any manner prohibited above.
 ---------------------------------------------------------------
  

 Cite this work as:
 Gaussian 16, Revision A.03,
 M. J. Frisch, G. W. Trucks, H. B. Schlegel, G. E. Scuseria, 
 M. A. Robb, J. R. Cheeseman, G. Scalmani, V. Barone, 
 G. A. Petersson, H. Nakatsuji, X. Li, M. Caricato, A. V. Marenich, 
 J. Bloino, B. G. Janesko, R. Gomperts, B. Mennucci, H. P. Hratchian, 
 J. V. Ortiz, A. F. Izmaylov, J. L. Sonnenberg, D. Williams-Young, 
 F. Ding, F. Lipparini, F. Egidi, J. Goings, B. Peng, A. Petrone, 
 T. Henderson, D. Ranasinghe, V. G. Zakrzewski, J. Gao, N. Rega, 
 G. Zheng, W. Liang, M. Hada, M. Ehara, K. Toyota, R. Fukuda, 
 J. Hasegawa, M. Ishida, T. Nakajima, Y. Honda, O. Kitao, H. Nakai, 
 T. Vreven, K. Throssell, J. A. Montgomery, Jr., J. E. Peralta, 
 F. Ogliaro, M. J. Bearpark, J. J. Heyd, E. N. Brothers, K. N. Kudin, 
 V. N. Staroverov, T. A. Keith, R. Kobayashi, J. Normand, 
 K. Raghavachari, A. P. Rendell, J. C. Burant, S. S. Iyengar, 
 J. Tomasi, M. Cossi, J. M. Millam, M. Klene, C. Adamo, R. Cammi, 
 J. W. Ochterski, R. L. Martin, K. Morokuma, O. Farkas, 
 J. B. Foresman, and D. J. Fox, Gaussian, Inc., Wallingford CT, 2016.
 
 ******************************************
 Gaussian 16:  ES64L-G16RevA.03 25-Dec-2016
                20-Apr-2021 
 ******************************************
 %nprocshared=48
 Will use up to   48 processors via shared memory.
 %mem=90GB
 ----------------------------------------------------------------------
 #P M062X/Def2QZVP Integral=UltraFineGrid SCF=NoSymm Stable=(RExt, Opt)
  IOp(1/33=1)
 ----------------------------------------------------------------------
 1/33=1,38=1,172=1/1;
 2/12=2,17=6,18=5,40=1/2;
 3/5=45,7=101,11=2,25=1,30=1,74=-55,75=-5/1,2,3;
 4/9=2/1;
 5/5=2,38=5/2;
 6/7=2,8=2,9=2,10=2,28=1/1;
 8/6=1,10=90,11=11/1;
 9/8=-3,42=1,46=1/14;
 5/5=2,8=3,17=40,38=5/8(-2);
 6/7=2,8=2,9=2,10=2,28=1/1;
 99/5=1,9=1/99;
 Leave Link    1 at Tue Apr 20 10:36:11 2021, MaxMem= 12079595520 cpu:               8.2 elap:               0.2
 (Enter /s/ls4/groups/g0130/bin/g16/l101.exe)
 ONIOM data not found on unit 2.
 ----------------------
 Database calculations.
 ----------------------
 TstMul:  ICh=     0
 TstMul:  Mul=     1
 TstMul:  ICh=     0
 TstMul:  Mul=     1
 Symbolic Z-matrix:
 Charge =  0 Multiplicity = 1
 C                    -4.64328   2.47588   0.48908 
 C                    -5.81232   1.50692   0.38964 
 C                    -5.44346   0.31387  -0.56801 
 C                    -3.88993   0.10134  -0.64866 
 C                    -3.09547   0.36019   0.66753 
 C                    -3.36026   1.85219   1.08497 
 C                    -3.48952  -1.23723  -1.27467 
 C                    -2.0152   -1.19776  -1.67981 
 C                    -1.12418  -0.57963  -0.62969 
 C                    -1.58841   0.12844   0.42254 
 C                    -6.21478  -0.9603   -0.174 
 C                    -5.91828   0.72594  -1.98033 
 C                    -0.65961   0.66201   1.51527 
 C                     0.86501   0.43803   1.32816 
 C                     1.12795  -0.82      0.50611 
 C                     0.37526  -0.68753  -0.8596 
 C                     2.58622  -1.04167   0.04546 
 C                     2.43506  -1.98995  -1.18965 
 C                     0.93796  -1.90556  -1.63386 
 C                     3.61044  -1.43918   1.14513 
 C                     4.96691  -0.74468   0.8916 
 C                     4.95078   0.76248   1.23168 
 C                     6.2004    1.47593   0.78283 
 C                     6.40636   2.02802  -0.42412 
 C                     3.82668  -2.95129   1.32353 
 C                     7.71723   2.68897  -0.77577 
 C                     5.38013   2.03823  -1.53196 
 O                    -6.17593   1.138     1.73739 
 C                     0.76365   0.58281  -1.67432 
 C                     0.62899  -2.04509   1.30964 
 H                     3.21951  -1.04825   2.09792 
 H                    -3.52572   0.87724  -1.34134 
 C                    -3.53442  -0.58908   1.81186 
 H                    -4.9402    3.35007   1.08169 
 H                    -4.43656   2.83138  -0.52896 
 H                    -6.67591   2.03004  -0.05549 
 H                    -3.3935    1.92051   2.17839 
 H                    -2.5247    2.47965   0.75231 
 H                    -4.11057  -1.45695  -2.15235 
 H                    -3.65478  -2.05026  -0.55701 
 H                    -1.65985  -2.21373  -1.90109 
 H                    -1.90477  -0.63342  -2.62223 
 H                    -5.89345  -1.35863   0.79187 
 H                    -7.29377  -0.74637  -0.12522 
 H                    -6.07508  -1.74064  -0.93038 
 H                    -5.48743   1.69464  -2.26704 
 H                    -5.61354  -0.01689  -2.72763 
 H                    -7.01298   0.81323  -2.00902 
 H                    -0.96263   0.18531   2.45833 
 H                    -0.8379    1.73289   1.67222 
 H                     1.32028   1.30091   0.82742 
 H                     1.34189   0.36112   2.3154 
 H                     2.91927  -0.07127  -0.33849 
 H                     3.10979  -1.68267  -1.99739 
 H                     2.69138  -3.02295  -0.93729 
 H                     0.40661  -2.82095  -1.35047 
 H                     0.83051  -1.78926  -2.71892 
 H                     5.24453  -0.87404  -0.16495 
 H                     5.75532  -1.23135   1.4842 
 H                     4.06421   1.2262    0.78153 
 H                     4.83213   0.86877   2.31978 
 H                     7.02527   1.50461   1.49868 
 H                     4.43892  -3.13507   2.21652 
 H                     4.36057  -3.37282   0.46116 
 H                     2.88197  -3.49337   1.4361 
 H                     8.42347   2.65731   0.06295 
 H                     8.18386   2.19623  -1.64352 
 H                     7.5605    3.74179  -1.0597 
 H                     4.45299   1.52318  -1.2612 
 H                     5.78934   1.55251  -2.43144 
 H                     5.13204   3.07176  -1.82041 
 H                    -6.95707   0.57283   1.67892 
 H                     0.54041   1.50085  -1.12214 
 H                     0.16787   0.59395  -2.59633 
 H                     1.82094   0.58723  -1.96674 
 H                    -0.44193  -1.97071   1.51969 
 H                     1.16903  -2.09486   2.26299 
 H                     0.80627  -2.98356   0.77492 
 H                    -4.56163  -0.381     2.11546 
 H                    -2.89872  -0.43705   2.69183 
 H                    -3.44018  -1.63838   1.50852 
 
 RdStrC is calling ZToCFu for IStruc=1 NZ=    81.
 PrtBox:  NBox=    14 Levels=  3 BoxLen=    8.00 SMaxX=       29.70
          Shift=           13.783228            6.601512            5.154473
 Box      1 Number                   0 centers from      1 to     12:
 Box      2 Number                   1 centers from     13 to     16:
 Box      3 Number                   2 centers from     17 to     25:
 Box      4 Number                   3 centers from     26 to     27:
 Box      5 Number                   4 centers from     28 to     42:
 Box      6 Number                   5 centers from     43 to     47:
 Box      7 Number                   6 centers from     48 to     49:
 Box      8 Number                   7 centers from     50 to     50:
 Box      9 Number                  32 centers from     51 to     62:
 Box     10 Number                  33 centers from     63 to     65:
 Box     11 Number                  34 centers from     66 to     71:
 Box     12 Number                  35 centers from     72 to     72:
 Box     13 Number                  36 centers from     73 to     73:
 Box     14 Number                  38 centers from     74 to     81:
 After GenITR:
 ITRead=  0  0  0  0  0  0  0  0  0  0  0  0  0  0  0  0  0  0  0  0
 ITRead=  0  0  0  0  0  0  0  0  0  0  0  0  0  0  0  0  0  0  0  0
 ITRead=  0  0  0  0  0  0  0  0  0  0  0  0  0  0  0  0  0  0  0  0
 ITRead=  0  0  0  0  0  0  0  0  0  0  0  0  0  0  0  0  0  0  0  0
 ITRead=  0
 MicOpt= -1 -1 -1 -1 -1 -1 -1 -1 -1 -1 -1 -1 -1 -1 -1 -1 -1 -1 -1 -1
 MicOpt= -1 -1 -1 -1 -1 -1 -1 -1 -1 -1 -1 -1 -1 -1 -1 -1 -1 -1 -1 -1
 MicOpt= -1 -1 -1 -1 -1 -1 -1 -1 -1 -1 -1 -1 -1 -1 -1 -1 -1 -1 -1 -1
 MicOpt= -1 -1 -1 -1 -1 -1 -1 -1 -1 -1 -1 -1 -1 -1 -1 -1 -1 -1 -1 -1
 MicOpt= -1
 ITRead=  0  0  0  0  0  0  0  0  0  0  0  0  0  0  0  0  0  0  0  0
 ITRead=  0  0  0  0  0  0  0  0  0  0  0  0  0  0  0  0  0  0  0  0
 ITRead=  0  0  0  0  0  0  0  0  0  0  0  0  0  0  0  0  0  0  0  0
 ITRead=  0  0  0  0  0  0  0  0  0  0  0  0  0  0  0  0  0  0  0  0
 ITRead=  0
 MicOpt= -1 -1 -1 -1 -1 -1 -1 -1 -1 -1 -1 -1 -1 -1 -1 -1 -1 -1 -1 -1
 MicOpt= -1 -1 -1 -1 -1 -1 -1 -1 -1 -1 -1 -1 -1 -1 -1 -1 -1 -1 -1 -1
 MicOpt= -1 -1 -1 -1 -1 -1 -1 -1 -1 -1 -1 -1 -1 -1 -1 -1 -1 -1 -1 -1
 MicOpt= -1 -1 -1 -1 -1 -1 -1 -1 -1 -1 -1 -1 -1 -1 -1 -1 -1 -1 -1 -1
 MicOpt= -1
 NAtoms=     81 NQM=       81 NQMF=       0 NMMI=      0 NMMIF=      0
                NMic=       0 NMicF=      0.
                    Isotopes and Nuclear Properties:
 (Nuclear quadrupole moments (NQMom) in fm**2, nuclear magnetic moments (NMagM)
  in nuclear magnetons)

  Atom         1           2           3           4           5           6           7           8           9          10
 IAtWgt=          12          12          12          12          12          12          12          12          12          12
 AtmWgt=  12.0000000  12.0000000  12.0000000  12.0000000  12.0000000  12.0000000  12.0000000  12.0000000  12.0000000  12.0000000
 NucSpn=           0           0           0           0           0           0           0           0           0           0
 AtZEff=  -0.0000000  -0.0000000  -0.0000000  -0.0000000  -0.0000000  -0.0000000  -0.0000000  -0.0000000  -0.0000000  -0.0000000
 NQMom=    0.0000000   0.0000000   0.0000000   0.0000000   0.0000000   0.0000000   0.0000000   0.0000000   0.0000000   0.0000000
 NMagM=    0.0000000   0.0000000   0.0000000   0.0000000   0.0000000   0.0000000   0.0000000   0.0000000   0.0000000   0.0000000
 AtZNuc=   6.0000000   6.0000000   6.0000000   6.0000000   6.0000000   6.0000000   6.0000000   6.0000000   6.0000000   6.0000000

  Atom        11          12          13          14          15          16          17          18          19          20
 IAtWgt=          12          12          12          12          12          12          12          12          12          12
 AtmWgt=  12.0000000  12.0000000  12.0000000  12.0000000  12.0000000  12.0000000  12.0000000  12.0000000  12.0000000  12.0000000
 NucSpn=           0           0           0           0           0           0           0           0           0           0
 AtZEff=  -0.0000000  -0.0000000  -0.0000000  -0.0000000  -0.0000000  -0.0000000  -0.0000000  -0.0000000  -0.0000000  -0.0000000
 NQMom=    0.0000000   0.0000000   0.0000000   0.0000000   0.0000000   0.0000000   0.0000000   0.0000000   0.0000000   0.0000000
 NMagM=    0.0000000   0.0000000   0.0000000   0.0000000   0.0000000   0.0000000   0.0000000   0.0000000   0.0000000   0.0000000
 AtZNuc=   6.0000000   6.0000000   6.0000000   6.0000000   6.0000000   6.0000000   6.0000000   6.0000000   6.0000000   6.0000000

  Atom        21          22          23          24          25          26          27          28          29          30
 IAtWgt=          12          12          12          12          12          12          12          16          12          12
 AtmWgt=  12.0000000  12.0000000  12.0000000  12.0000000  12.0000000  12.0000000  12.0000000  15.9949146  12.0000000  12.0000000
 NucSpn=           0           0           0           0           0           0           0           0           0           0
 AtZEff=  -0.0000000  -0.0000000  -0.0000000  -0.0000000  -0.0000000  -0.0000000  -0.0000000  -0.0000000  -0.0000000  -0.0000000
 NQMom=    0.0000000   0.0000000   0.0000000   0.0000000   0.0000000   0.0000000   0.0000000   0.0000000   0.0000000   0.0000000
 NMagM=    0.0000000   0.0000000   0.0000000   0.0000000   0.0000000   0.0000000   0.0000000   0.0000000   0.0000000   0.0000000
 AtZNuc=   6.0000000   6.0000000   6.0000000   6.0000000   6.0000000   6.0000000   6.0000000   8.0000000   6.0000000   6.0000000

  Atom        31          32          33          34          35          36          37          38          39          40
 IAtWgt=           1           1          12           1           1           1           1           1           1           1
 AtmWgt=   1.0078250   1.0078250  12.0000000   1.0078250   1.0078250   1.0078250   1.0078250   1.0078250   1.0078250   1.0078250
 NucSpn=           1           1           0           1           1           1           1           1           1           1
 AtZEff=  -0.0000000  -0.0000000  -0.0000000  -0.0000000  -0.0000000  -0.0000000  -0.0000000  -0.0000000  -0.0000000  -0.0000000
 NQMom=    0.0000000   0.0000000   0.0000000   0.0000000   0.0000000   0.0000000   0.0000000   0.0000000   0.0000000   0.0000000
 NMagM=    2.7928460   2.7928460   0.0000000   2.7928460   2.7928460   2.7928460   2.7928460   2.7928460   2.7928460   2.7928460
 AtZNuc=   1.0000000   1.0000000   6.0000000   1.0000000   1.0000000   1.0000000   1.0000000   1.0000000   1.0000000   1.0000000

  Atom        41          42          43          44          45          46          47          48          49          50
 IAtWgt=           1           1           1           1           1           1           1           1           1           1
 AtmWgt=   1.0078250   1.0078250   1.0078250   1.0078250   1.0078250   1.0078250   1.0078250   1.0078250   1.0078250   1.0078250
 NucSpn=           1           1           1           1           1           1           1           1           1           1
 AtZEff=  -0.0000000  -0.0000000  -0.0000000  -0.0000000  -0.0000000  -0.0000000  -0.0000000  -0.0000000  -0.0000000  -0.0000000
 NQMom=    0.0000000   0.0000000   0.0000000   0.0000000   0.0000000   0.0000000   0.0000000   0.0000000   0.0000000   0.0000000
 NMagM=    2.7928460   2.7928460   2.7928460   2.7928460   2.7928460   2.7928460   2.7928460   2.7928460   2.7928460   2.7928460
 AtZNuc=   1.0000000   1.0000000   1.0000000   1.0000000   1.0000000   1.0000000   1.0000000   1.0000000   1.0000000   1.0000000

  Atom        51          52          53          54          55          56          57          58          59          60
 IAtWgt=           1           1           1           1           1           1           1           1           1           1
 AtmWgt=   1.0078250   1.0078250   1.0078250   1.0078250   1.0078250   1.0078250   1.0078250   1.0078250   1.0078250   1.0078250
 NucSpn=           1           1           1           1           1           1           1           1           1           1
 AtZEff=  -0.0000000  -0.0000000  -0.0000000  -0.0000000  -0.0000000  -0.0000000  -0.0000000  -0.0000000  -0.0000000  -0.0000000
 NQMom=    0.0000000   0.0000000   0.0000000   0.0000000   0.0000000   0.0000000   0.0000000   0.0000000   0.0000000   0.0000000
 NMagM=    2.7928460   2.7928460   2.7928460   2.7928460   2.7928460   2.7928460   2.7928460   2.7928460   2.7928460   2.7928460
 AtZNuc=   1.0000000   1.0000000   1.0000000   1.0000000   1.0000000   1.0000000   1.0000000   1.0000000   1.0000000   1.0000000

  Atom        61          62          63          64          65          66          67          68          69          70
 IAtWgt=           1           1           1           1           1           1           1           1           1           1
 AtmWgt=   1.0078250   1.0078250   1.0078250   1.0078250   1.0078250   1.0078250   1.0078250   1.0078250   1.0078250   1.0078250
 NucSpn=           1           1           1           1           1           1           1           1           1           1
 AtZEff=  -0.0000000  -0.0000000  -0.0000000  -0.0000000  -0.0000000  -0.0000000  -0.0000000  -0.0000000  -0.0000000  -0.0000000
 NQMom=    0.0000000   0.0000000   0.0000000   0.0000000   0.0000000   0.0000000   0.0000000   0.0000000   0.0000000   0.0000000
 NMagM=    2.7928460   2.7928460   2.7928460   2.7928460   2.7928460   2.7928460   2.7928460   2.7928460   2.7928460   2.7928460
 AtZNuc=   1.0000000   1.0000000   1.0000000   1.0000000   1.0000000   1.0000000   1.0000000   1.0000000   1.0000000   1.0000000

  Atom        71          72          73          74          75          76          77          78          79          80
 IAtWgt=           1           1           1           1           1           1           1           1           1           1
 AtmWgt=   1.0078250   1.0078250   1.0078250   1.0078250   1.0078250   1.0078250   1.0078250   1.0078250   1.0078250   1.0078250
 NucSpn=           1           1           1           1           1           1           1           1           1           1
 AtZEff=  -0.0000000  -0.0000000  -0.0000000  -0.0000000  -0.0000000  -0.0000000  -0.0000000  -0.0000000  -0.0000000  -0.0000000
 NQMom=    0.0000000   0.0000000   0.0000000   0.0000000   0.0000000   0.0000000   0.0000000   0.0000000   0.0000000   0.0000000
 NMagM=    2.7928460   2.7928460   2.7928460   2.7928460   2.7928460   2.7928460   2.7928460   2.7928460   2.7928460   2.7928460
 AtZNuc=   1.0000000   1.0000000   1.0000000   1.0000000   1.0000000   1.0000000   1.0000000   1.0000000   1.0000000   1.0000000

  Atom        81
 IAtWgt=           1
 AtmWgt=   1.0078250
 NucSpn=           1
 AtZEff=  -0.0000000
 NQMom=    0.0000000
 NMagM=    2.7928460
 AtZNuc=   1.0000000
 No MM parameters found.
 Leave Link  101 at Tue Apr 20 10:36:11 2021, MaxMem= 12079595520 cpu:               8.4 elap:               0.2
 (Enter /s/ls4/groups/g0130/bin/g16/l202.exe)
 Stoichiometry    C30H50O
 Framework group  C1[X(C30H50O)]
 Deg. of freedom   237
 Full point group                 C1      NOp   1
 Largest Abelian subgroup         C1      NOp   1
 Largest concise Abelian subgroup C1      NOp   1
                         Standard orientation:                         
 ---------------------------------------------------------------------
 Center     Atomic      Atomic             Coordinates (Angstroms)
 Number     Number       Type             X           Y           Z
 ---------------------------------------------------------------------
      1          6           0       -4.495669   -2.433165   -0.559932
      2          6           0       -5.667662   -1.473160   -0.417630
      3          6           0       -5.303686   -0.324683    0.594802
      4          6           0       -3.750901   -0.111712    0.687702
      5          6           0       -2.953753   -0.307110   -0.637780
      6          6           0       -3.213590   -1.778933   -1.124254
      7          6           0       -3.355299    1.197575    1.375634
      8          6           0       -1.881475    1.143573    1.780888
      9          6           0       -0.987113    0.577237    0.704716
     10          6           0       -1.447730   -0.082679   -0.379899
     11          6           0       -6.078118    0.964169    0.258947
     12          6           0       -5.779393   -0.803027    1.985767
     13          6           0       -0.515775   -0.562469   -1.494658
     14          6           0        1.007911   -0.343067   -1.294932
     15          6           0        1.265987    0.876300   -0.415116
     16          6           0        0.511663    0.678623    0.941793
     17          6           0        2.722923    1.080542    0.057653
     18          6           0        2.567182    1.970204    1.335075
     19          6           0        1.069686    1.861104    1.772494
     20          6           0        3.747600    1.531424   -1.020799
     21          6           0        5.105714    0.829772   -0.797503
     22          6           0        5.094458   -0.660068   -1.206996
     23          6           0        6.345480   -1.389983   -0.789635
     24          6           0        6.551259   -1.996763    0.390798
     25          6           0        3.959717    3.050771   -1.128675
     26          6           0        7.863519   -2.669567    0.713595
     27          6           0        5.523435   -2.061144    1.495329
     28          8           0       -6.030355   -1.043284   -1.747451
     29          6           0        0.902541   -0.626961    1.697468
     30          6           0        0.764651    2.135849   -1.161888
     31          1           0        3.359221    1.183911   -1.991285
     32          1           0       -3.385460   -0.917804    1.344315
     33          6           0       -3.393763    0.692867   -1.737656
     34          1           0       -4.789175   -3.279825   -1.192841
     35          1           0       -4.289422   -2.834819    0.440902
     36          1           0       -6.530385   -2.018774    0.001423
     37          1           0       -3.245014   -1.796661   -2.219712
     38          1           0       -2.376700   -2.418747   -0.819642
     39          1           0       -3.978287    1.374676    2.261547
     40          1           0       -3.521858    2.042484    0.696108
     41          1           0       -1.529400    2.149209    2.049524
     42          1           0       -1.770801    0.536527    2.696356
     43          1           0       -5.756522    1.407689   -0.686934
     44          1           0       -7.156411    0.749672    0.198576
     45          1           0       -5.941806    1.709062    1.050855
     46          1           0       -5.346155   -1.782736    2.228031
     47          1           0       -5.477916   -0.094715    2.767139
     48          1           0       -6.873874   -0.894643    2.008627
     49          1           0       -0.818784   -0.043486   -2.415133
     50          1           0       -0.690722   -1.625433   -1.701291
     51          1           0        1.464942   -1.226917   -0.833935
     52          1           0        1.486023   -0.219196   -2.276782
     53          1           0        3.058224    0.094355    0.396811
     54          1           0        3.241615    1.627773    2.128820
     55          1           0        2.820881    3.014500    1.131211
     56          1           0        0.536094    2.787120    1.530924
     57          1           0        0.960973    1.694401    2.850841
     58          1           0        5.381390    0.910878    0.264353
     59          1           0        5.893575    1.345580   -1.365672
     60          1           0        4.208575   -1.146638   -0.780217
     61          1           0        4.977720   -0.716218   -2.299038
     62          1           0        7.171491   -1.383163   -1.504717
     63          1           0        4.572737    3.277429   -2.011213
     64          1           0        4.491107    3.433446   -0.246856
     65          1           0        3.013600    3.594806   -1.217554
     66          1           0        8.570906   -2.597121   -0.121627
     67          1           0        8.327440   -2.216198    1.603964
     68          1           0        7.709433   -3.734839    0.948242
     69          1           0        4.595197   -1.536749    1.247203
     70          1           0        5.929899   -1.616426    2.416978
     71          1           0        5.277917   -3.107625    1.735237
     72          1           0       -6.813219   -0.483644   -1.664137
     73          1           0        0.682782   -1.519080    1.103030
     74          1           0        0.305438   -0.682448    2.617012
     75          1           0        1.959400   -0.641909    1.991066
     76          1           0       -0.305730    2.068243   -1.376878
     77          1           0        1.305954    2.231224   -2.111035
     78          1           0        0.938415    3.049062   -0.584014
     79          1           0       -4.419917    0.496151   -2.052208
     80          1           0       -2.756331    0.583529   -2.622693
     81          1           0       -3.303017    1.727263   -1.385920
 ---------------------------------------------------------------------
 Rotational constants (GHZ):           0.3166537           0.0622306           0.0599861
 Leave Link  202 at Tue Apr 20 10:36:11 2021, MaxMem= 12079595520 cpu:               6.2 elap:               0.2
 (Enter /s/ls4/groups/g0130/bin/g16/l301.exe)
 Standard basis: def2QZVP (5D, 7F)
 Ernie: Thresh=  0.10000D-02 Tol=  0.10000D-05 Strict=F.
 There are  3982 symmetry adapted cartesian basis functions of A   symmetry.
 There are  3267 symmetry adapted basis functions of A   symmetry.
  3267 basis functions,  4752 primitive gaussians,  3982 cartesian basis functions
   119 alpha electrons      119 beta electrons
       nuclear repulsion energy      3407.4809730324 Hartrees.
 IExCor= 4336 DFT=T Ex+Corr=M062X ExCW=0 ScaHFX=  0.540000
 ScaDFX=  1.000000  1.000000  1.000000  1.000000 ScalE2=  1.000000  1.000000
 IRadAn=      5 IRanWt=     -1 IRanGd=            0 ICorTp=0 IEmpDi=  4
 NAtoms=   81 NActive=   81 NUniq=   81 SFac= 1.00D+00 NAtFMM=   60 NAOKFM=T Big=T
 Integral buffers will be    131072 words long.
 Raffenetti 2 integral format.
 Two-electron integral symmetry is turned on.
 Leave Link  301 at Tue Apr 20 10:36:11 2021, MaxMem= 12079595520 cpu:               7.4 elap:               0.2
 (Enter /s/ls4/groups/g0130/bin/g16/l302.exe)
 NPDir=0 NMtPBC=     1 NCelOv=     1 NCel=       1 NClECP=     1 NCelD=      1
         NCelK=      1 NCelE2=     1 NClLst=     1 CellRange=     0.0.
 One-electron integrals computed using PRISM.
 One-electron integral symmetry used in STVInt
   1 Symmetry operations used in ECPInt.
 ECPInt:  NShTT=  527878 NPrTT= 1201984 LenC2=  363685 LenP2D=  608640.
 LDataN:  DoStor=T MaxTD1= 8 Len=  415
 Number of processors reduced to  30 by ecpmxn.
 NBasis=  3267 RedAO= T EigKep=  1.61D-06  NBF=  3267
 NBsUse=  3267 1.00D-06 EigRej= -1.00D+00 NBFU=  3267
 Precomputing XC quadrature grid using
 IXCGrd= 4 IRadAn=           5 IRanWt=          -1 IRanGd=           0 AccXCQ= 0.00D+00.
 Generated NRdTot=       0 NPtTot=           0 NUsed=           0 NTot=          32
 NSgBfM=  3616  3595  3605  3608  3616 MxSgAt=    81 MxSgA2=    81.
 Leave Link  302 at Tue Apr 20 10:36:58 2021, MaxMem= 12079595520 cpu:            2220.8 elap:              46.4
 (Enter /s/ls4/groups/g0130/bin/g16/l303.exe)
 DipDrv:  MaxL=1.
 Leave Link  303 at Tue Apr 20 10:39:18 2021, MaxMem= 12079595520 cpu:            6569.6 elap:             139.9
 (Enter /s/ls4/groups/g0130/bin/g16/l401.exe)
 SCF N**3 symmetry information disabled.
 ExpMin= 7.60D-02 ExpMax= 1.17D+05 ExpMxC= 1.13D+03 IAcc=3 IRadAn=         5 AccDes= 0.00D+00
 Harris functional with IExCor= 1009 and IRadAn=       5 diagonalized for initial guess.
 HarFok:  IExCor= 1009 AccDes= 0.00D+00 IRadAn=         5 IDoV= 1 UseB2=F ITyADJ=14
 ICtDFT=  3500011 ScaDFX=  1.000000  1.000000  1.000000  1.000000
 FoFCou: FMM=F IPFlag=           0 FMFlag=      100000 FMFlg1=        2001
         NFxFlg=           0 DoJE=T BraDBF=F KetDBF=T FulRan=T
         wScrn=  0.000000 ICntrl=       500 IOpCl=  0 I1Cent=   200000004 NGrid=           0
         NMat0=    1 NMatS0=      1 NMatT0=    0 NMatD0=    1 NMtDS0=    0 NMtDT0=    0
 Petite list used in FoFCou.
 Harris En= -1248.14060198657    
 JPrj=0 DoOrth=F DoCkMO=F.
 Leave Link  401 at Tue Apr 20 10:40:12 2021, MaxMem= 12079595520 cpu:            2595.6 elap:              54.2
 (Enter /s/ls4/groups/g0130/bin/g16/l502.exe)
 Integral symmetry usage will be decided dynamically.
 Closed shell SCF:
 Using DIIS extrapolation, IDIIS=  1040.
 NGot= 12079595520 LenX= 12047660867 LenY= 12031800561
 Requested convergence on RMS density matrix=1.00D-08 within 128 cycles.
 Requested convergence on MAX density matrix=1.00D-06.
 Requested convergence on             energy=1.00D-06.
 No special actions if energy rises.
 Fock matrices will be formed incrementally for  20 cycles.
 Integral accuracy reduced to 1.0D-05 until final iterations.

 Cycle   1  Pass 0  IDiag  1:
 FoFJK:  IHMeth= 1 ICntrl=       0 DoSepK=F KAlg= 0 I1Cent=           0 FoldK=F
 IRaf= 640000000 NMat=       1 IRICut=       1 DoRegI=T DoRafI=F ISym2E= 0 IDoP0=0 IntGTp=1.
 FoFCou: FMM=T IPFlag=           0 FMFlag=      100000 FMFlg1=        2001
         NFxFlg=           0 DoJE=F BraDBF=F KetDBF=F FulRan=T
         wScrn=  0.000000 ICntrl=         0 IOpCl=  0 I1Cent=           0 NGrid=           0
         NMat0=    1 NMatS0=      1 NMatT0=    0 NMatD0=    1 NMtDS0=    0 NMtDT0=    0
 Symmetry not used in FoFCou.
 FMM levels:  10  Number of levels for PrismC:   9
 E= -1247.37406688047    
 DIIS: error= 1.24D-02 at cycle   1 NSaved=   1.
 NSaved= 1 IEnMin= 1 EnMin= -1247.37406688047     IErMin= 1 ErrMin= 1.24D-02
 ErrMax= 1.24D-02  0.00D+00 EMaxC= 1.00D-01 BMatC= 1.75D+00 BMatP= 1.75D+00
 IDIUse=3 WtCom= 8.76D-01 WtEn= 1.24D-01
 Coeff-Com:  0.100D+01
 Coeff-En:   0.100D+01
 Coeff:      0.100D+01
 Gap=     0.325 Goal=   None    Shift=    0.000
 GapD=    0.325 DampG=1.000 DampE=0.500 DampFc=0.5000 IDamp=-1.
 Damping current iteration by 5.00D-01
 RMSDP=1.96D+02 MaxDP=1.10D+05              OVMax= 9.99D-01

 Problem detected with inexpensive integrals.
 Switching to full accuracy and repeating last cycle.
 Cycle   2  Pass 1  IDiag  1:
 E= -1247.37418014779     Delta-E=       -0.000113267322 Rises=F Damp=F
 DIIS: error= 1.24D-02 at cycle   1 NSaved=   1.
 NSaved= 1 IEnMin= 1 EnMin= -1247.37418014779     IErMin= 1 ErrMin= 1.24D-02
 ErrMax= 1.24D-02  0.00D+00 EMaxC= 1.00D-01 BMatC= 1.72D+00 BMatP= 1.72D+00
 IDIUse=3 WtCom= 8.76D-01 WtEn= 1.24D-01
 Coeff-Com:  0.100D+01
 Coeff-En:   0.100D+01
 Coeff:      0.100D+01
 Gap=     0.325 Goal=   None    Shift=    0.000
 GapD=    0.325 DampG=1.000 DampE=0.500 DampFc=0.5000 IDamp=-1.
 Damping current iteration by 5.00D-01
 RMSDP=1.32D-03 MaxDP=4.09D-01 DE=-1.13D-04 OVMax= 1.51D-01

 Cycle   3  Pass 1  IDiag  1:
 RMSU=  6.44D-04    CP:  9.16D-01
 E= -1247.94629727129     Delta-E=       -0.572117123493 Rises=F Damp=T
 DIIS: error= 4.61D-03 at cycle   2 NSaved=   2.
 NSaved= 2 IEnMin= 2 EnMin= -1247.94629727129     IErMin= 2 ErrMin= 4.61D-03
 ErrMax= 4.61D-03  0.00D+00 EMaxC= 1.00D-01 BMatC= 2.02D-01 BMatP= 1.72D+00
 IDIUse=3 WtCom= 9.54D-01 WtEn= 4.61D-02
 Coeff-Com: -0.189D+00 0.119D+01
 Coeff-En:   0.000D+00 0.100D+01
 Coeff:     -0.180D+00 0.118D+01
 Gap=     0.337 Goal=   None    Shift=    0.000
 GapD=    0.337 DampG=1.000 DampE=1.000 DampFc=1.0000 IDamp=-1.
 RMSDP=8.17D-04 MaxDP=2.16D-01 DE=-5.72D-01 OVMax= 8.84D-02

 Cycle   4  Pass 1  IDiag  1:
 RMSU=  7.90D-04    CP:  7.91D-01  1.01D+00
 E= -1248.47288801968     Delta-E=       -0.526590748388 Rises=F Damp=F
 DIIS: error= 2.71D-03 at cycle   3 NSaved=   3.
 NSaved= 3 IEnMin= 3 EnMin= -1248.47288801968     IErMin= 3 ErrMin= 2.71D-03
 ErrMax= 2.71D-03  0.00D+00 EMaxC= 1.00D-01 BMatC= 4.06D-02 BMatP= 2.02D-01
 IDIUse=3 WtCom= 9.73D-01 WtEn= 2.71D-02
 Coeff-Com: -0.140D+00 0.378D+00 0.762D+00
 Coeff-En:   0.000D+00 0.000D+00 0.100D+01
 Coeff:     -0.136D+00 0.368D+00 0.768D+00
 Gap=     0.322 Goal=   None    Shift=    0.000
 RMSDP=1.42D-04 MaxDP=3.62D-02 DE=-5.27D-01 OVMax= 2.33D-02

 Cycle   5  Pass 1  IDiag  1:
 RMSU=  1.01D-04    CP:  7.85D-01  1.11D+00  9.00D-01
 E= -1248.50546300963     Delta-E=       -0.032574989958 Rises=F Damp=F
 DIIS: error= 1.13D-03 at cycle   4 NSaved=   4.
 NSaved= 4 IEnMin= 4 EnMin= -1248.50546300963     IErMin= 4 ErrMin= 1.13D-03
 ErrMax= 1.13D-03  0.00D+00 EMaxC= 1.00D-01 BMatC= 6.61D-03 BMatP= 4.06D-02
 IDIUse=3 WtCom= 9.89D-01 WtEn= 1.13D-02
 Coeff-Com: -0.565D-01 0.128D+00 0.373D+00 0.555D+00
 Coeff-En:   0.000D+00 0.000D+00 0.205D-01 0.979D+00
 Coeff:     -0.558D-01 0.126D+00 0.370D+00 0.560D+00
 Gap=     0.294 Goal=   None    Shift=    0.000
 RMSDP=5.07D-05 MaxDP=2.21D-02 DE=-3.26D-02 OVMax= 9.22D-03

 Cycle   6  Pass 1  IDiag  1:
 RMSU=  3.83D-05    CP:  7.79D-01  1.07D+00  9.04D-01  8.25D-01
 E= -1248.51118613522     Delta-E=       -0.005723125585 Rises=F Damp=F
 DIIS: error= 1.36D-04 at cycle   5 NSaved=   5.
 NSaved= 5 IEnMin= 5 EnMin= -1248.51118613522     IErMin= 5 ErrMin= 1.36D-04
 ErrMax= 1.36D-04  0.00D+00 EMaxC= 1.00D-01 BMatC= 1.74D-04 BMatP= 6.61D-03
 IDIUse=3 WtCom= 9.99D-01 WtEn= 1.36D-03
 Coeff-Com: -0.836D-02 0.182D-01 0.712D-01 0.191D+00 0.728D+00
 Coeff-En:   0.000D+00 0.000D+00 0.000D+00 0.000D+00 0.100D+01
 Coeff:     -0.835D-02 0.181D-01 0.711D-01 0.191D+00 0.728D+00
 Gap=     0.293 Goal=   None    Shift=    0.000
 RMSDP=1.61D-05 MaxDP=5.42D-03 DE=-5.72D-03 OVMax= 1.98D-03

 Cycle   7  Pass 1  IDiag  1:
 RMSU=  1.03D-05    CP:  7.77D-01  1.06D+00  8.94D-01  8.52D-01  1.22D+00
 E= -1248.51133033259     Delta-E=       -0.000144197369 Rises=F Damp=F
 DIIS: error= 4.27D-05 at cycle   6 NSaved=   6.
 NSaved= 6 IEnMin= 6 EnMin= -1248.51133033259     IErMin= 6 ErrMin= 4.27D-05
 ErrMax= 4.27D-05  0.00D+00 EMaxC= 1.00D-01 BMatC= 1.02D-05 BMatP= 1.74D-04
 IDIUse=1 WtCom= 1.00D+00 WtEn= 0.00D+00
 Coeff-Com:  0.107D-02-0.230D-02-0.439D-03 0.295D-01 0.226D+00 0.747D+00
 Coeff:      0.107D-02-0.230D-02-0.439D-03 0.295D-01 0.226D+00 0.747D+00
 Gap=     0.293 Goal=   None    Shift=    0.000
 RMSDP=3.98D-06 MaxDP=1.25D-03 DE=-1.44D-04 OVMax= 1.23D-03

 Cycle   8  Pass 1  IDiag  1:
 RMSU=  2.21D-06    CP:  7.77D-01  1.06D+00  8.92D-01  8.59D-01  1.28D+00
                    CP:  1.10D+00
 E= -1248.51133728816     Delta-E=       -0.000006955570 Rises=F Damp=F
 DIIS: error= 2.09D-05 at cycle   7 NSaved=   7.
 NSaved= 7 IEnMin= 7 EnMin= -1248.51133728816     IErMin= 7 ErrMin= 2.09D-05
 ErrMax= 2.09D-05  0.00D+00 EMaxC= 1.00D-01 BMatC= 3.31D-06 BMatP= 1.02D-05
 IDIUse=1 WtCom= 1.00D+00 WtEn= 0.00D+00
 Coeff-Com:  0.160D-02-0.349D-02-0.939D-02-0.977D-02 0.156D-01 0.389D+00
 Coeff-Com:  0.617D+00
 Coeff:      0.160D-02-0.349D-02-0.939D-02-0.977D-02 0.156D-01 0.389D+00
 Coeff:      0.617D+00
 Gap=     0.293 Goal=   None    Shift=    0.000
 RMSDP=1.01D-06 MaxDP=3.55D-04 DE=-6.96D-06 OVMax= 7.22D-04

 Cycle   9  Pass 1  IDiag  1:
 RMSU=  8.05D-07    CP:  7.77D-01  1.06D+00  8.92D-01  8.59D-01  1.29D+00
                    CP:  1.13D+00  1.01D+00
 E= -1248.51134028776     Delta-E=       -0.000002999605 Rises=F Damp=F
 DIIS: error= 4.86D-06 at cycle   8 NSaved=   8.
 NSaved= 8 IEnMin= 8 EnMin= -1248.51134028776     IErMin= 8 ErrMin= 4.86D-06
 ErrMax= 4.86D-06  0.00D+00 EMaxC= 1.00D-01 BMatC= 2.51D-07 BMatP= 3.31D-06
 IDIUse=1 WtCom= 1.00D+00 WtEn= 0.00D+00
 Coeff-Com:  0.542D-03-0.123D-02-0.373D-02-0.611D-02-0.102D-01 0.110D+00
 Coeff-Com:  0.276D+00 0.635D+00
 Coeff:      0.542D-03-0.123D-02-0.373D-02-0.611D-02-0.102D-01 0.110D+00
 Coeff:      0.276D+00 0.635D+00
 Gap=     0.293 Goal=   None    Shift=    0.000
 RMSDP=4.08D-07 MaxDP=2.72D-04 DE=-3.00D-06 OVMax= 2.08D-04

 Cycle  10  Pass 1  IDiag  1:
 RMSU=  3.04D-07    CP:  7.77D-01  1.06D+00  8.93D-01  8.59D-01  1.28D+00
                    CP:  1.13D+00  1.03D+00  1.05D+00
 E= -1248.51134051051     Delta-E=       -0.000000222744 Rises=F Damp=F
 DIIS: error= 1.54D-06 at cycle   9 NSaved=   9.
 NSaved= 9 IEnMin= 9 EnMin= -1248.51134051051     IErMin= 9 ErrMin= 1.54D-06
 ErrMax= 1.54D-06  0.00D+00 EMaxC= 1.00D-01 BMatC= 2.31D-08 BMatP= 2.51D-07
 IDIUse=1 WtCom= 1.00D+00 WtEn= 0.00D+00
 Coeff-Com: -0.315D-04 0.289D-04-0.738D-04-0.825D-03-0.490D-02-0.933D-02
 Coeff-Com:  0.203D-01 0.243D+00 0.752D+00
 Coeff:     -0.315D-04 0.289D-04-0.738D-04-0.825D-03-0.490D-02-0.933D-02
 Coeff:      0.203D-01 0.243D+00 0.752D+00
 Gap=     0.293 Goal=   None    Shift=    0.000
 RMSDP=2.19D-07 MaxDP=1.28D-04 DE=-2.23D-07 OVMax= 5.43D-05

 Cycle  11  Pass 1  IDiag  1:
 RMSU=  1.13D-07    CP:  7.77D-01  1.06D+00  8.93D-01  8.58D-01  1.28D+00
                    CP:  1.12D+00  1.04D+00  1.13D+00  1.28D+00
 E= -1248.51134053097     Delta-E=       -0.000000020466 Rises=F Damp=F
 DIIS: error= 5.60D-07 at cycle  10 NSaved=  10.
 NSaved=10 IEnMin=10 EnMin= -1248.51134053097     IErMin=10 ErrMin= 5.60D-07
 ErrMax= 5.60D-07  0.00D+00 EMaxC= 1.00D-01 BMatC= 2.66D-09 BMatP= 2.31D-08
 IDIUse=1 WtCom= 1.00D+00 WtEn= 0.00D+00
 Coeff-Com: -0.530D-04 0.103D-03 0.227D-03 0.606D-04-0.139D-02-0.124D-01
 Coeff-Com: -0.136D-01 0.515D-01 0.325D+00 0.650D+00
 Coeff:     -0.530D-04 0.103D-03 0.227D-03 0.606D-04-0.139D-02-0.124D-01
 Coeff:     -0.136D-01 0.515D-01 0.325D+00 0.650D+00
 Gap=     0.293 Goal=   None    Shift=    0.000
 RMSDP=3.51D-08 MaxDP=1.86D-05 DE=-2.05D-08 OVMax= 1.26D-05

 Cycle  12  Pass 1  IDiag  1:
 RMSU=  2.57D-08    CP:  7.77D-01  1.06D+00  8.93D-01  8.58D-01  1.28D+00
                    CP:  1.12D+00  1.04D+00  1.15D+00  1.33D+00  1.04D+00
 E= -1248.51134053326     Delta-E=       -0.000000002286 Rises=F Damp=F
 DIIS: error= 1.86D-07 at cycle  11 NSaved=  11.
 NSaved=11 IEnMin=11 EnMin= -1248.51134053326     IErMin=11 ErrMin= 1.86D-07
 ErrMax= 1.86D-07  0.00D+00 EMaxC= 1.00D-01 BMatC= 2.44D-10 BMatP= 2.66D-09
 IDIUse=1 WtCom= 1.00D+00 WtEn= 0.00D+00
 Coeff-Com: -0.176D-04 0.374D-04 0.832D-04 0.474D-04-0.331D-03-0.449D-02
 Coeff-Com: -0.708D-02 0.336D-02 0.822D-01 0.287D+00 0.639D+00
 Coeff:     -0.176D-04 0.374D-04 0.832D-04 0.474D-04-0.331D-03-0.449D-02
 Coeff:     -0.708D-02 0.336D-02 0.822D-01 0.287D+00 0.639D+00
 Gap=     0.293 Goal=   None    Shift=    0.000
 RMSDP=1.18D-08 MaxDP=3.26D-06 DE=-2.29D-09 OVMax= 4.20D-06

 Cycle  13  Pass 1  IDiag  1:
 RMSU=  7.61D-09    CP:  7.77D-01  1.06D+00  8.93D-01  8.58D-01  1.28D+00
                    CP:  1.12D+00  1.04D+00  1.15D+00  1.33D+00  1.06D+00
                    CP:  9.81D-01
 E= -1248.51134053354     Delta-E=       -0.000000000275 Rises=F Damp=F
 DIIS: error= 6.28D-08 at cycle  12 NSaved=  12.
 NSaved=12 IEnMin=12 EnMin= -1248.51134053354     IErMin=12 ErrMin= 6.28D-08
 ErrMax= 6.28D-08  0.00D+00 EMaxC= 1.00D-01 BMatC= 1.45D-11 BMatP= 2.44D-10
 IDIUse=1 WtCom= 1.00D+00 WtEn= 0.00D+00
 Coeff-Com: -0.198D-05 0.530D-05 0.874D-05-0.365D-05-0.886D-04-0.777D-03
 Coeff-Com: -0.147D-02-0.194D-02 0.786D-02 0.589D-01 0.243D+00 0.695D+00
 Coeff:     -0.198D-05 0.530D-05 0.874D-05-0.365D-05-0.886D-04-0.777D-03
 Coeff:     -0.147D-02-0.194D-02 0.786D-02 0.589D-01 0.243D+00 0.695D+00
 Gap=     0.293 Goal=   None    Shift=    0.000
 RMSDP=4.21D-09 MaxDP=1.83D-06 DE=-2.75D-10 OVMax= 1.15D-06

 Cycle  14  Pass 1  IDiag  1:
 RMSU=  2.23D-09    CP:  7.77D-01  1.06D+00  8.93D-01  8.58D-01  1.28D+00
                    CP:  1.12D+00  1.04D+00  1.15D+00  1.32D+00  1.05D+00
                    CP:  1.00D+00  1.14D+00
 E= -1248.51134053335     Delta-E=        0.000000000188 Rises=F Damp=F
 DIIS: error= 2.15D-08 at cycle  13 NSaved=  13.
 NSaved=13 IEnMin=12 EnMin= -1248.51134053354     IErMin=13 ErrMin= 2.15D-08
 ErrMax= 2.15D-08  0.00D+00 EMaxC= 1.00D-01 BMatC= 1.39D-12 BMatP= 1.45D-11
 IDIUse=1 WtCom= 1.00D+00 WtEn= 0.00D+00
 Coeff-Com:  0.575D-06-0.743D-06-0.285D-05-0.588D-05-0.133D-04 0.637D-04
 Coeff-Com:  0.263D-04-0.893D-03-0.358D-02-0.251D-02 0.377D-01 0.265D+00
 Coeff-Com:  0.704D+00
 Coeff:      0.575D-06-0.743D-06-0.285D-05-0.588D-05-0.133D-04 0.637D-04
 Coeff:      0.263D-04-0.893D-03-0.358D-02-0.251D-02 0.377D-01 0.265D+00
 Coeff:      0.704D+00
 Gap=     0.293 Goal=   None    Shift=    0.000
 RMSDP=9.69D-10 MaxDP=2.66D-07 DE= 1.88D-10 OVMax= 5.36D-07

 SCF Done:  E(RM062X) =  -1248.51134053     A.U. after   14 cycles
            NFock= 14  Conv=0.97D-09     -V/T= 2.0055
 KE= 1.241731084789D+03 PE=-9.709438006592D+03 EE= 3.811714608237D+03
 Leave Link  502 at Tue Apr 20 17:29:18 2021, MaxMem= 12079595520 cpu:         1160809.0 elap:           24545.9
 (Enter /s/ls4/groups/g0130/bin/g16/l601.exe)
 Copying SCF densities to generalized density rwf, IOpCl= 0 IROHF=0.

 **********************************************************************

            Population analysis using the SCF density.

 **********************************************************************

 Orbital symmetries:
       Occupied  (A) (A) (A) (A) (A) (A) (A) (A) (A) (A) (A) (A)
                 (A) (A) (A) (A) (A) (A) (A) (A) (A) (A) (A) (A)
                 (A) (A) (A) (A) (A) (A) (A) (A) (A) (A) (A) (A)
                 (A) (A) (A) (A) (A) (A) (A) (A) (A) (A) (A) (A)
                 (A) (A) (A) (A) (A) (A) (A) (A) (A) (A) (A) (A)
                 (A) (A) (A) (A) (A) (A) (A) (A) (A) (A) (A) (A)
                 (A) (A) (A) (A) (A) (A) (A) (A) (A) (A) (A) (A)
                 (A) (A) (A) (A) (A) (A) (A) (A) (A) (A) (A) (A)
                 (A) (A) (A) (A) (A) (A) (A) (A) (A) (A) (A) (A)
                 (A) (A) (A) (A) (A) (A) (A) (A) (A) (A) (A)
       Virtual   (A) (A) (A) (A) (A) (A) (A) (A) (A) (A) (A) (A)
                 (A) (A) (A) (A) (A) (A) (A) (A) (A) (A) (A) (A)
                 (A) (A) (A) (A) (A) (A) (A) (A) (A) (A) (A) (A)
                 (A) (A) (A) (A) (A) (A) (A) (A) (A) (A) (A) (A)
                 (A) (A) (A) (A) (A) (A) (A) (A) (A) (A) (A) (A)
                 (A) (A) (A) (A) (A) (A) (A) (A) (A) (A) (A) (A)
                 (A) (A) (A) (A) (A) (A) (A) (A) (A) (A) (A) (A)
                 (A) (A) (A) (A) (A) (A) (A) (A) (A) (A) (A) (A)
                 (A) (A) (A) (A) (A) (A) (A) (A) (A) (A) (A) (A)
                 (A) (A) (A) (A) (A) (A) (A) (A) (A) (A) (A) (A)
                 (A) (A) (A) (A) (A) (A) (A) (A) (A) (A) (A) (A)
                 (A) (A) (A) (A) (A) (A) (A) (A) (A) (A) (A) (A)
                 (A) (A) (A) (A) (A) (A) (A) (A) (A) (A) (A) (A)
                 (A) (A) (A) (A) (A) (A) (A) (A) (A) (A) (A) (A)
                 (A) (A) (A) (A) (A) (A) (A) (A) (A) (A) (A) (A)
                 (A) (A) (A) (A) (A) (A) (A) (A) (A) (A) (A) (A)
                 (A) (A) (A) (A) (A) (A) (A) (A) (A) (A) (A) (A)
                 (A) (A) (A) (A) (A) (A) (A) (A) (A) (A) (A) (A)
                 (A) (A) (A) (A) (A) (A) (A) (A) (A) (A) (A) (A)
                 (A) (A) (A) (A) (A) (A) (A) (A) (A) (A) (A) (A)
                 (A) (A) (A) (A) (A) (A) (A) (A) (A) (A) (A) (A)
                 (A) (A) (A) (A) (A) (A) (A) (A) (A) (A) (A) (A)
                 (A) (A) (A) (A) (A) (A) (A) (A) (A) (A) (A) (A)
                 (A) (A) (A) (A) (A) (A) (A) (A) (A) (A) (A) (A)
                 (A) (A) (A) (A) (A) (A) (A) (A) (A) (A) (A) (A)
                 (A) (A) (A) (A) (A) (A) (A) (A) (A) (A) (A) (A)
                 (A) (A) (A) (A) (A) (A) (A) (A) (A) (A) (A) (A)
                 (A) (A) (A) (A) (A) (A) (A) (A) (A) (A) (A) (A)
                 (A) (A) (A) (A) (A) (A) (A) (A) (A) (A) (A) (A)
                 (A) (A) (A) (A) (A) (A) (A) (A) (A) (A) (A) (A)
                 (A) (A) (A) (A) (A) (A) (A) (A) (A) (A) (A) (A)
                 (A) (A) (A) (A) (A) (A) (A) (A) (A) (A) (A) (A)
                 (A) (A) (A) (A) (A) (A) (A) (A) (A) (A) (A) (A)
                 (A) (A) (A) (A) (A) (A) (A) (A) (A) (A) (A) (A)
                 (A) (A) (A) (A) (A) (A) (A) (A) (A) (A) (A) (A)
                 (A) (A) (A) (A) (A) (A) (A) (A) (A) (A) (A) (A)
                 (A) (A) (A) (A) (A) (A) (A) (A) (A) (A) (A) (A)
                 (A) (A) (A) (A) (A) (A) (A) (A) (A) (A) (A) (A)
                 (A) (A) (A) (A) (A) (A) (A) (A) (A) (A) (A) (A)
                 (A) (A) (A) (A) (A) (A) (A) (A) (A) (A) (A) (A)
                 (A) (A) (A) (A) (A) (A) (A) (A) (A) (A) (A) (A)
                 (A) (A) (A) (A) (A) (A) (A) (A) (A) (A) (A) (A)
                 (A) (A) (A) (A) (A) (A) (A) (A) (A) (A) (A) (A)
                 (A) (A) (A) (A) (A) (A) (A) (A) (A) (A) (A) (A)
                 (A) (A) (A) (A) (A) (A) (A) (A) (A) (A) (A) (A)
                 (A) (A) (A) (A) (A) (A) (A) (A) (A) (A) (A) (A)
                 (A) (A) (A) (A) (A) (A) (A) (A) (A) (A) (A) (A)
                 (A) (A) (A) (A) (A) (A) (A) (A) (A) (A) (A) (A)
                 (A) (A) (A) (A) (A) (A) (A) (A) (A) (A) (A) (A)
                 (A) (A) (A) (A) (A) (A) (A) (A) (A) (A) (A) (A)
                 (A) (A) (A) (A) (A) (A) (A) (A) (A) (A) (A) (A)
                 (A) (A) (A) (A) (A) (A) (A) (A) (A) (A) (A) (A)
                 (A) (A) (A) (A) (A) (A) (A) (A) (A) (A) (A) (A)
                 (A) (A) (A) (A) (A) (A) (A) (A) (A) (A) (A) (A)
                 (A) (A) (A) (A) (A) (A) (A) (A) (A) (A) (A) (A)
                 (A) (A) (A) (A) (A) (A) (A) (A) (A) (A) (A) (A)
                 (A) (A) (A) (A) (A) (A) (A) (A) (A) (A) (A) (A)
                 (A) (A) (A) (A) (A) (A) (A) (A) (A) (A) (A) (A)
                 (A) (A) (A) (A) (A) (A) (A) (A) (A) (A) (A) (A)
                 (A) (A) (A) (A) (A) (A) (A) (A) (A) (A) (A) (A)
                 (A) (A) (A) (A) (A) (A) (A) (A) (A) (A) (A) (A)
                 (A) (A) (A) (A) (A) (A) (A) (A) (A) (A) (A) (A)
                 (A) (A) (A) (A) (A) (A) (A) (A) (A) (A) (A) (A)
                 (A) (A) (A) (A) (A) (A) (A) (A) (A) (A) (A) (A)
                 (A) (A) (A) (A) (A) (A) (A) (A) (A) (A) (A) (A)
                 (A) (A) (A) (A) (A) (A) (A) (A) (A) (A) (A) (A)
                 (A) (A) (A) (A) (A) (A) (A) (A) (A) (A) (A) (A)
                 (A) (A) (A) (A) (A) (A) (A) (A) (A) (A) (A) (A)
                 (A) (A) (A) (A) (A) (A) (A) (A) (A) (A) (A) (A)
                 (A) (A) (A) (A) (A) (A) (A) (A) (A) (A) (A) (A)
                 (A) (A) (A) (A) (A) (A) (A) (A) (A) (A) (A) (A)
                 (A) (A) (A) (A) (A) (A) (A) (A) (A) (A) (A) (A)
                 (A) (A) (A) (A) (A) (A) (A) (A) (A) (A) (A) (A)
                 (A) (A) (A) (A) (A) (A) (A) (A) (A) (A) (A) (A)
                 (A) (A) (A) (A) (A) (A) (A) (A) (A) (A) (A) (A)
                 (A) (A) (A) (A) (A) (A) (A) (A) (A) (A) (A) (A)
                 (A) (A) (A) (A) (A) (A) (A) (A) (A) (A) (A) (A)
                 (A) (A) (A) (A) (A) (A) (A) (A) (A) (A) (A) (A)
                 (A) (A) (A) (A) (A) (A) (A) (A) (A) (A) (A) (A)
                 (A) (A) (A) (A) (A) (A) (A) (A) (A) (A) (A) (A)
                 (A) (A) (A) (A) (A) (A) (A) (A) (A) (A) (A) (A)
                 (A) (A) (A) (A) (A) (A) (A) (A) (A) (A) (A) (A)
                 (A) (A) (A) (A) (A) (A) (A) (A) (A) (A) (A) (A)
                 (A) (A) (A) (A) (A) (A) (A) (A) (A) (A) (A) (A)
                 (A) (A) (A) (A) (A) (A) (A) (A) (A) (A) (A) (A)
                 (A) (A) (A) (A) (A) (A) (A) (A) (A) (A) (A) (A)
                 (A) (A) (A) (A) (A) (A) (A) (A) (A) (A) (A) (A)
                 (A) (A) (A) (A) (A) (A) (A) (A) (A) (A) (A) (A)
                 (A) (A) (A) (A) (A) (A) (A) (A) (A) (A) (A) (A)
                 (A) (A) (A) (A) (A) (A) (A) (A) (A) (A) (A) (A)
                 (A) (A) (A) (A) (A) (A) (A) (A) (A) (A) (A) (A)
                 (A) (A) (A) (A) (A) (A) (A) (A) (A) (A) (A) (A)
                 (A) (A) (A) (A) (A) (A) (A) (A) (A) (A) (A) (A)
                 (A) (A) (A) (A) (A) (A) (A) (A) (A) (A) (A) (A)
                 (A) (A) (A) (A) (A) (A) (A) (A) (A) (A) (A) (A)
                 (A) (A) (A) (A) (A) (A) (A) (A) (A) (A) (A) (A)
                 (A) (A) (A) (A) (A) (A) (A) (A) (A) (A) (A) (A)
                 (A) (A) (A) (A) (A) (A) (A) (A) (A) (A) (A) (A)
                 (A) (A) (A) (A) (A) (A) (A) (A) (A) (A) (A) (A)
                 (A) (A) (A) (A) (A) (A) (A) (A) (A) (A) (A) (A)
                 (A) (A) (A) (A) (A) (A) (A) (A) (A) (A) (A) (A)
                 (A) (A) (A) (A) (A) (A) (A) (A) (A) (A) (A) (A)
                 (A) (A) (A) (A) (A) (A) (A) (A) (A) (A) (A) (A)
                 (A) (A) (A) (A) (A) (A) (A) (A) (A) (A) (A) (A)
                 (A) (A) (A) (A) (A) (A) (A) (A) (A) (A) (A) (A)
                 (A) (A) (A) (A) (A) (A) (A) (A) (A) (A) (A) (A)
                 (A) (A) (A) (A) (A) (A) (A) (A) (A) (A) (A) (A)
                 (A) (A) (A) (A) (A) (A) (A) (A) (A) (A) (A) (A)
                 (A) (A) (A) (A) (A) (A) (A) (A) (A) (A) (A) (A)
                 (A) (A) (A) (A) (A) (A) (A) (A) (A) (A) (A) (A)
                 (A) (A) (A) (A) (A) (A) (A) (A) (A) (A) (A) (A)
                 (A) (A) (A) (A) (A) (A) (A) (A) (A) (A) (A) (A)
                 (A) (A) (A) (A) (A) (A) (A) (A) (A) (A) (A) (A)
                 (A) (A) (A) (A) (A) (A) (A) (A) (A) (A) (A) (A)
                 (A) (A) (A) (A) (A) (A) (A) (A) (A) (A) (A) (A)
                 (A) (A) (A) (A) (A) (A) (A) (A) (A) (A) (A) (A)
                 (A) (A) (A) (A) (A) (A) (A) (A) (A) (A) (A) (A)
                 (A) (A) (A) (A) (A) (A) (A) (A) (A) (A) (A) (A)
                 (A) (A) (A) (A) (A) (A) (A) (A) (A) (A) (A) (A)
                 (A) (A) (A) (A) (A) (A) (A) (A) (A) (A) (A) (A)
                 (A) (A) (A) (A) (A) (A) (A) (A) (A) (A) (A) (A)
                 (A) (A) (A) (A) (A) (A) (A) (A) (A) (A) (A) (A)
                 (A) (A) (A) (A) (A) (A) (A) (A) (A) (A) (A) (A)
                 (A) (A) (A) (A) (A) (A) (A) (A) (A) (A) (A) (A)
                 (A) (A) (A) (A) (A) (A) (A) (A) (A) (A) (A) (A)
                 (A) (A) (A) (A) (A) (A) (A) (A) (A) (A) (A) (A)
                 (A) (A) (A) (A) (A) (A) (A) (A) (A) (A) (A) (A)
                 (A) (A) (A) (A) (A) (A) (A) (A) (A) (A) (A) (A)
                 (A) (A) (A) (A) (A) (A) (A) (A) (A) (A) (A) (A)
                 (A) (A) (A) (A) (A) (A) (A) (A) (A) (A) (A) (A)
                 (A) (A) (A) (A) (A) (A) (A) (A) (A) (A) (A) (A)
                 (A) (A) (A) (A) (A) (A) (A) (A) (A) (A) (A) (A)
                 (A) (A) (A) (A) (A) (A) (A) (A) (A) (A) (A) (A)
                 (A) (A) (A) (A) (A) (A) (A) (A) (A) (A) (A) (A)
                 (A) (A) (A) (A) (A) (A) (A) (A) (A) (A) (A) (A)
                 (A) (A) (A) (A) (A) (A) (A) (A) (A) (A) (A) (A)
                 (A) (A) (A) (A) (A) (A) (A) (A) (A) (A) (A) (A)
                 (A) (A) (A) (A) (A) (A) (A) (A) (A) (A) (A) (A)
                 (A) (A) (A) (A) (A) (A) (A) (A) (A) (A) (A) (A)
                 (A) (A) (A) (A) (A) (A) (A) (A) (A) (A) (A) (A)
                 (A) (A) (A) (A) (A) (A) (A) (A) (A) (A) (A) (A)
                 (A) (A) (A) (A) (A) (A) (A) (A) (A) (A) (A) (A)
                 (A) (A) (A) (A) (A) (A) (A) (A) (A) (A) (A) (A)
                 (A) (A) (A) (A) (A) (A) (A) (A) (A) (A) (A) (A)
                 (A) (A) (A) (A) (A) (A) (A) (A) (A) (A) (A) (A)
                 (A) (A) (A) (A) (A) (A) (A) (A) (A) (A) (A) (A)
                 (A) (A) (A) (A) (A) (A) (A) (A) (A) (A) (A) (A)
                 (A) (A) (A) (A) (A) (A) (A) (A) (A) (A) (A) (A)
                 (A) (A) (A) (A) (A) (A) (A) (A) (A) (A) (A) (A)
                 (A) (A) (A) (A) (A) (A) (A) (A) (A) (A) (A) (A)
                 (A) (A) (A) (A) (A) (A) (A) (A) (A) (A) (A) (A)
                 (A) (A) (A) (A) (A) (A) (A) (A) (A) (A) (A) (A)
                 (A) (A) (A) (A) (A) (A) (A) (A) (A) (A) (A) (A)
                 (A) (A) (A) (A) (A) (A) (A) (A) (A) (A) (A) (A)
                 (A) (A) (A) (A) (A) (A) (A) (A) (A) (A) (A) (A)
                 (A) (A) (A) (A) (A) (A) (A) (A) (A) (A) (A) (A)
                 (A) (A) (A) (A) (A) (A) (A) (A) (A) (A) (A) (A)
                 (A) (A) (A) (A) (A) (A) (A) (A) (A) (A) (A) (A)
                 (A) (A) (A) (A) (A) (A) (A) (A) (A) (A) (A) (A)
                 (A) (A) (A) (A) (A) (A) (A) (A) (A) (A) (A) (A)
                 (A) (A) (A) (A) (A) (A) (A) (A) (A) (A) (A) (A)
                 (A) (A) (A) (A) (A) (A) (A) (A) (A) (A) (A) (A)
                 (A) (A) (A) (A) (A) (A) (A) (A) (A) (A) (A) (A)
                 (A) (A) (A) (A) (A) (A) (A) (A) (A) (A) (A) (A)
                 (A) (A) (A) (A) (A) (A) (A) (A) (A) (A) (A) (A)
                 (A) (A) (A) (A) (A) (A) (A) (A) (A) (A) (A) (A)
                 (A) (A) (A) (A) (A) (A) (A) (A) (A) (A) (A) (A)
                 (A) (A) (A) (A) (A) (A) (A) (A) (A) (A) (A) (A)
                 (A) (A) (A) (A) (A) (A) (A) (A) (A) (A) (A) (A)
                 (A) (A) (A) (A) (A) (A) (A) (A) (A) (A) (A) (A)
                 (A) (A) (A) (A) (A) (A) (A) (A) (A) (A) (A) (A)
                 (A) (A) (A) (A) (A) (A) (A) (A) (A) (A) (A) (A)
                 (A) (A) (A) (A) (A) (A) (A) (A) (A) (A) (A) (A)
                 (A) (A) (A) (A) (A) (A) (A) (A) (A) (A) (A) (A)
                 (A) (A) (A) (A) (A) (A) (A) (A) (A) (A) (A) (A)
                 (A) (A) (A) (A) (A) (A) (A) (A) (A) (A) (A) (A)
                 (A) (A) (A) (A) (A) (A) (A) (A) (A) (A) (A) (A)
                 (A) (A) (A) (A) (A) (A) (A) (A) (A) (A) (A) (A)
                 (A) (A) (A) (A) (A) (A) (A) (A) (A) (A) (A) (A)
                 (A) (A) (A) (A) (A) (A) (A) (A) (A) (A) (A) (A)
                 (A) (A) (A) (A) (A) (A) (A) (A) (A) (A) (A) (A)
                 (A) (A) (A) (A) (A) (A) (A) (A) (A) (A) (A) (A)
                 (A) (A) (A) (A) (A) (A) (A) (A) (A) (A) (A) (A)
                 (A) (A) (A) (A) (A) (A) (A) (A) (A) (A) (A) (A)
                 (A) (A) (A) (A) (A) (A) (A) (A) (A) (A) (A) (A)
                 (A) (A) (A) (A) (A) (A) (A) (A) (A) (A) (A) (A)
                 (A) (A) (A) (A) (A) (A) (A) (A) (A) (A) (A) (A)
                 (A) (A) (A) (A) (A) (A) (A) (A) (A) (A) (A) (A)
                 (A) (A) (A) (A) (A) (A) (A) (A) (A) (A) (A) (A)
                 (A) (A) (A) (A) (A) (A) (A) (A) (A) (A) (A) (A)
                 (A) (A) (A) (A) (A) (A) (A) (A) (A) (A) (A) (A)
                 (A) (A) (A) (A) (A) (A) (A) (A) (A) (A) (A) (A)
                 (A) (A) (A) (A) (A) (A) (A) (A) (A) (A) (A) (A)
                 (A) (A) (A) (A) (A) (A) (A) (A) (A) (A) (A) (A)
                 (A) (A) (A) (A) (A) (A) (A) (A) (A) (A) (A) (A)
                 (A) (A) (A) (A) (A) (A) (A) (A) (A) (A) (A) (A)
                 (A) (A) (A) (A) (A) (A) (A) (A) (A) (A) (A) (A)
                 (A) (A) (A) (A) (A) (A) (A) (A) (A) (A) (A) (A)
                 (A) (A) (A) (A) (A) (A) (A) (A) (A) (A) (A) (A)
                 (A) (A) (A) (A) (A) (A) (A) (A) (A) (A) (A) (A)
                 (A) (A) (A) (A) (A) (A) (A) (A) (A) (A) (A) (A)
                 (A) (A) (A) (A) (A) (A) (A) (A) (A) (A) (A) (A)
                 (A) (A) (A) (A) (A) (A) (A) (A) (A) (A) (A) (A)
                 (A) (A) (A) (A) (A) (A) (A) (A) (A) (A) (A) (A)
                 (A) (A) (A) (A) (A) (A) (A) (A) (A) (A) (A) (A)
                 (A) (A) (A) (A) (A) (A) (A) (A) (A) (A) (A) (A)
                 (A) (A) (A) (A) (A) (A) (A) (A) (A) (A) (A) (A)
                 (A) (A) (A) (A) (A) (A) (A) (A) (A) (A) (A) (A)
                 (A) (A) (A) (A) (A) (A) (A) (A) (A) (A) (A) (A)
                 (A) (A) (A) (A) (A) (A) (A) (A) (A) (A) (A) (A)
                 (A) (A) (A) (A) (A) (A) (A) (A) (A) (A) (A) (A)
                 (A) (A) (A) (A) (A) (A) (A) (A) (A) (A) (A) (A)
                 (A) (A) (A) (A) (A) (A) (A) (A) (A) (A) (A) (A)
                 (A) (A) (A) (A) (A) (A) (A) (A) (A) (A) (A) (A)
                 (A) (A) (A) (A) (A) (A) (A) (A) (A) (A) (A) (A)
                 (A) (A) (A) (A) (A) (A) (A) (A) (A) (A) (A) (A)
                 (A) (A) (A) (A) (A) (A) (A) (A) (A) (A) (A) (A)
                 (A) (A) (A) (A) (A) (A) (A) (A) (A) (A) (A) (A)
                 (A) (A) (A) (A) (A) (A) (A) (A) (A) (A) (A) (A)
                 (A) (A) (A) (A) (A) (A) (A) (A) (A) (A) (A) (A)
                 (A) (A) (A) (A) (A) (A) (A) (A) (A) (A) (A) (A)
                 (A) (A) (A) (A) (A) (A) (A) (A) (A) (A) (A) (A)
                 (A) (A) (A) (A) (A) (A) (A) (A) (A) (A) (A) (A)
                 (A) (A) (A) (A) (A) (A) (A) (A) (A) (A) (A) (A)
                 (A) (A) (A) (A) (A) (A) (A) (A) (A) (A) (A) (A)
                 (A) (A) (A) (A) (A) (A) (A) (A) (A) (A) (A) (A)
                 (A) (A) (A) (A) (A) (A) (A) (A) (A) (A) (A) (A)
                 (A) (A) (A) (A) (A) (A) (A) (A) (A) (A) (A) (A)
                 (A) (A) (A) (A) (A) (A) (A) (A) (A) (A) (A) (A)
                 (A) (A) (A) (A) (A) (A) (A) (A) (A) (A) (A) (A)
                 (A) (A) (A) (A) (A) (A) (A) (A) (A) (A) (A) (A)
                 (A) (A) (A) (A) (A) (A) (A) (A) (A) (A) (A) (A)
                 (A) (A) (A) (A) (A) (A) (A) (A) (A) (A) (A) (A)
                 (A) (A) (A) (A) (A) (A) (A) (A) (A) (A) (A) (A)
                 (A) (A) (A) (A) (A) (A) (A) (A) (A) (A) (A) (A)
                 (A) (A) (A) (A) (A) (A) (A) (A) (A) (A) (A) (A)
                 (A) (A) (A) (A) (A) (A) (A) (A) (A) (A) (A) (A)
                 (A) (A) (A) (A) (A) (A) (A) (A) (A) (A) (A) (A)
                 (A) (A) (A) (A) (A) (A) (A) (A) (A) (A) (A) (A)
                 (A) (A) (A) (A) (A) (A) (A) (A) (A) (A) (A) (A)
                 (A) (A) (A) (A) (A) (A) (A) (A) (A) (A) (A) (A)
                 (A) (A) (A) (A) (A) (A) (A) (A) (A) (A) (A) (A)
                 (A) (A) (A) (A) (A) (A) (A) (A) (A) (A) (A) (A)
                 (A) (A) (A) (A) (A) (A) (A) (A) (A) (A) (A) (A)
                 (A) (A) (A) (A) (A) (A) (A) (A) (A) (A) (A) (A)
                 (A) (A) (A) (A) (A) (A) (A) (A) (A) (A) (A) (A)
                 (A) (A) (A) (A) (A) (A) (A) (A) (A) (A) (A) (A)
                 (A) (A) (A) (A) (A) (A) (A) (A) (A) (A) (A) (A)
                 (A) (A) (A) (A) (A) (A) (A) (A) (A) (A) (A) (A)
                 (A) (A) (A) (A) (A) (A) (A) (A) (A) (A) (A) (A)
                 (A) (A) (A) (A) (A) (A) (A) (A) (A) (A) (A) (A)
                 (A) (A) (A) (A) (A) (A) (A) (A) (A) (A) (A) (A)
                 (A) (A) (A) (A) (A) (A) (A) (A) (A) (A) (A) (A)
                 (A) (A) (A) (A) (A) (A) (A) (A) (A) (A) (A) (A)
                 (A) (A) (A) (A) (A) (A) (A) (A) (A) (A) (A) (A)
                 (A) (A) (A) (A) (A) (A) (A) (A) (A) (A) (A) (A)
                 (A) (A) (A) (A) (A) (A) (A) (A) (A) (A) (A) (A)
                 (A) (A) (A) (A) (A) (A) (A) (A) (A) (A) (A) (A)
                 (A) (A) (A) (A) (A) (A) (A) (A) (A) (A) (A) (A)
                 (A) (A) (A) (A) (A) (A) (A) (A) (A) (A) (A) (A)
                 (A) (A) (A) (A) (A) (A) (A) (A) (A) (A) (A) (A)
                 (A) (A) (A) (A) (A) (A) (A) (A) (A) (A) (A) (A)
                 (A) (A) (A) (A)
 The electronic state is 1-A.
 Alpha  occ. eigenvalues --  -19.62246 -10.58989 -10.55481 -10.54952 -10.54393
 Alpha  occ. eigenvalues --  -10.54363 -10.53901 -10.53852 -10.53777 -10.53433
 Alpha  occ. eigenvalues --  -10.53384 -10.53348 -10.53289 -10.53287 -10.53284
 Alpha  occ. eigenvalues --  -10.53238 -10.53229 -10.53197 -10.53145 -10.53113
 Alpha  occ. eigenvalues --  -10.53055 -10.53054 -10.53030 -10.53022 -10.52980
 Alpha  occ. eigenvalues --  -10.52886 -10.52747 -10.52509 -10.52295 -10.51847
 Alpha  occ. eigenvalues --  -10.51368  -1.13855  -0.97331  -0.95183  -0.91974
 Alpha  occ. eigenvalues --   -0.90863  -0.89114  -0.88510  -0.86997  -0.84955
 Alpha  occ. eigenvalues --   -0.83617  -0.82676  -0.80430  -0.79329  -0.77972
 Alpha  occ. eigenvalues --   -0.77951  -0.76955  -0.76090  -0.75719  -0.75633
 Alpha  occ. eigenvalues --   -0.73149  -0.70087  -0.69769  -0.68419  -0.66939
 Alpha  occ. eigenvalues --   -0.66564  -0.64354  -0.61635  -0.60047  -0.59149
 Alpha  occ. eigenvalues --   -0.58465  -0.57475  -0.55629  -0.55272  -0.54865
 Alpha  occ. eigenvalues --   -0.54467  -0.53689  -0.52786  -0.51964  -0.51670
 Alpha  occ. eigenvalues --   -0.51174  -0.50626  -0.50102  -0.49832  -0.49474
 Alpha  occ. eigenvalues --   -0.49127  -0.48859  -0.47950  -0.47294  -0.46956
 Alpha  occ. eigenvalues --   -0.46414  -0.46270  -0.45833  -0.45318  -0.44948
 Alpha  occ. eigenvalues --   -0.44845  -0.44557  -0.44527  -0.43812  -0.43715
 Alpha  occ. eigenvalues --   -0.43337  -0.42997  -0.42789  -0.42506  -0.42262
 Alpha  occ. eigenvalues --   -0.41908  -0.41715  -0.41619  -0.40798  -0.40489
 Alpha  occ. eigenvalues --   -0.39758  -0.39591  -0.39425  -0.39273  -0.39018
 Alpha  occ. eigenvalues --   -0.38423  -0.38111  -0.37395  -0.36606  -0.35723
 Alpha  occ. eigenvalues --   -0.35423  -0.35358  -0.35092  -0.34426  -0.34032
 Alpha  occ. eigenvalues --   -0.32452  -0.31292  -0.28477  -0.27076
 Alpha virt. eigenvalues --    0.02214   0.02867   0.03734   0.03878   0.04160
 Alpha virt. eigenvalues --    0.04678   0.04964   0.05234   0.05451   0.05738
 Alpha virt. eigenvalues --    0.06276   0.06401   0.06692   0.07114   0.07395
 Alpha virt. eigenvalues --    0.07930   0.07974   0.08407   0.08738   0.08879
 Alpha virt. eigenvalues --    0.09132   0.09510   0.09616   0.09819   0.10166
 Alpha virt. eigenvalues --    0.10274   0.10590   0.10690   0.10782   0.11487
 Alpha virt. eigenvalues --    0.11832   0.12147   0.12256   0.12483   0.12748
 Alpha virt. eigenvalues --    0.12895   0.13329   0.13623   0.13740   0.14001
 Alpha virt. eigenvalues --    0.14268   0.14559   0.14945   0.14986   0.15271
 Alpha virt. eigenvalues --    0.15499   0.15680   0.15974   0.16304   0.16479
 Alpha virt. eigenvalues --    0.16571   0.16848   0.16911   0.17448   0.17892
 Alpha virt. eigenvalues --    0.18053   0.18197   0.18368   0.18876   0.19024
 Alpha virt. eigenvalues --    0.19228   0.19711   0.19879   0.20050   0.20204
 Alpha virt. eigenvalues --    0.20593   0.20848   0.20974   0.21237   0.21475
 Alpha virt. eigenvalues --    0.21921   0.22031   0.22251   0.22531   0.22678
 Alpha virt. eigenvalues --    0.23231   0.23348   0.23705   0.24099   0.24331
 Alpha virt. eigenvalues --    0.24774   0.24818   0.25121   0.25449   0.25573
 Alpha virt. eigenvalues --    0.25732   0.26220   0.26291   0.26479   0.26599
 Alpha virt. eigenvalues --    0.26634   0.26916   0.27014   0.27263   0.27576
 Alpha virt. eigenvalues --    0.27782   0.27947   0.28204   0.28480   0.28538
 Alpha virt. eigenvalues --    0.28888   0.29069   0.29098   0.29265   0.29453
 Alpha virt. eigenvalues --    0.29581   0.29862   0.29962   0.30345   0.30439
 Alpha virt. eigenvalues --    0.30638   0.30740   0.30933   0.30973   0.31145
 Alpha virt. eigenvalues --    0.31308   0.31805   0.31848   0.31857   0.32020
 Alpha virt. eigenvalues --    0.32287   0.32379   0.32615   0.32759   0.32849
 Alpha virt. eigenvalues --    0.33141   0.33301   0.33484   0.33623   0.33776
 Alpha virt. eigenvalues --    0.33882   0.34133   0.34278   0.34495   0.34560
 Alpha virt. eigenvalues --    0.34697   0.34986   0.35033   0.35160   0.35321
 Alpha virt. eigenvalues --    0.35435   0.35740   0.35850   0.36022   0.36114
 Alpha virt. eigenvalues --    0.36503   0.36649   0.36777   0.37002   0.37135
 Alpha virt. eigenvalues --    0.37247   0.37569   0.37748   0.38083   0.38206
 Alpha virt. eigenvalues --    0.38265   0.38490   0.38688   0.38794   0.39059
 Alpha virt. eigenvalues --    0.39399   0.39490   0.39727   0.40075   0.40146
 Alpha virt. eigenvalues --    0.40438   0.40696   0.40809   0.40930   0.41063
 Alpha virt. eigenvalues --    0.41409   0.41521   0.42025   0.42141   0.42463
 Alpha virt. eigenvalues --    0.42642   0.42727   0.42997   0.43156   0.43730
 Alpha virt. eigenvalues --    0.44051   0.44162   0.44462   0.44567   0.44737
 Alpha virt. eigenvalues --    0.44858   0.45532   0.45788   0.45896   0.46187
 Alpha virt. eigenvalues --    0.46718   0.46788   0.47065   0.47162   0.47232
 Alpha virt. eigenvalues --    0.47579   0.47910   0.48411   0.48580   0.49207
 Alpha virt. eigenvalues --    0.49308   0.49419   0.50057   0.50092   0.50493
 Alpha virt. eigenvalues --    0.50756   0.50937   0.51178   0.51783   0.51977
 Alpha virt. eigenvalues --    0.52120   0.52270   0.52671   0.53112   0.53258
 Alpha virt. eigenvalues --    0.53887   0.54005   0.54080   0.54316   0.54514
 Alpha virt. eigenvalues --    0.54673   0.55009   0.55347   0.55724   0.56223
 Alpha virt. eigenvalues --    0.56533   0.56845   0.57082   0.57514   0.57865
 Alpha virt. eigenvalues --    0.57950   0.58122   0.58644   0.58886   0.59389
 Alpha virt. eigenvalues --    0.59509   0.59741   0.59953   0.60371   0.60750
 Alpha virt. eigenvalues --    0.60834   0.61083   0.61280   0.61508   0.61771
 Alpha virt. eigenvalues --    0.61863   0.62152   0.62526   0.62792   0.63179
 Alpha virt. eigenvalues --    0.63521   0.63613   0.63750   0.64083   0.64247
 Alpha virt. eigenvalues --    0.64603   0.64888   0.65072   0.65696   0.65915
 Alpha virt. eigenvalues --    0.66230   0.66344   0.66607   0.66888   0.67014
 Alpha virt. eigenvalues --    0.67264   0.67873   0.68054   0.68227   0.68673
 Alpha virt. eigenvalues --    0.68950   0.69084   0.69501   0.69733   0.69852
 Alpha virt. eigenvalues --    0.69966   0.70329   0.70593   0.70721   0.71049
 Alpha virt. eigenvalues --    0.71408   0.71727   0.71851   0.72091   0.72529
 Alpha virt. eigenvalues --    0.72793   0.73048   0.73301   0.73725   0.73816
 Alpha virt. eigenvalues --    0.74158   0.74472   0.74863   0.74906   0.75585
 Alpha virt. eigenvalues --    0.75781   0.75816   0.76133   0.76517   0.76805
 Alpha virt. eigenvalues --    0.77255   0.77308   0.77524   0.77632   0.78057
 Alpha virt. eigenvalues --    0.78216   0.78727   0.78958   0.79113   0.79585
 Alpha virt. eigenvalues --    0.79687   0.79922   0.80199   0.80372   0.80529
 Alpha virt. eigenvalues --    0.80858   0.81074   0.81337   0.81485   0.81722
 Alpha virt. eigenvalues --    0.81792   0.82055   0.82377   0.82549   0.82699
 Alpha virt. eigenvalues --    0.83182   0.83231   0.83629   0.83682   0.83710
 Alpha virt. eigenvalues --    0.84075   0.84765   0.84923   0.85344   0.85408
 Alpha virt. eigenvalues --    0.85517   0.86051   0.86092   0.86267   0.86548
 Alpha virt. eigenvalues --    0.86779   0.86881   0.87022   0.87278   0.87412
 Alpha virt. eigenvalues --    0.87784   0.88042   0.88135   0.88514   0.88776
 Alpha virt. eigenvalues --    0.88877   0.89148   0.89224   0.89335   0.89689
 Alpha virt. eigenvalues --    0.89883   0.90057   0.90266   0.90343   0.90562
 Alpha virt. eigenvalues --    0.90734   0.90964   0.91377   0.91494   0.91685
 Alpha virt. eigenvalues --    0.91790   0.92077   0.92396   0.92683   0.92806
 Alpha virt. eigenvalues --    0.93253   0.93366   0.93488   0.93595   0.93841
 Alpha virt. eigenvalues --    0.94175   0.94523   0.94600   0.94744   0.95176
 Alpha virt. eigenvalues --    0.95452   0.95668   0.95685   0.96143   0.96248
 Alpha virt. eigenvalues --    0.96431   0.97074   0.97333   0.97526   0.97604
 Alpha virt. eigenvalues --    0.97724   0.97858   0.98199   0.98416   0.98784
 Alpha virt. eigenvalues --    0.98898   0.99349   0.99388   0.99479   0.99747
 Alpha virt. eigenvalues --    0.99913   1.00249   1.00450   1.00570   1.00974
 Alpha virt. eigenvalues --    1.01255   1.01448   1.01727   1.02068   1.02147
 Alpha virt. eigenvalues --    1.02244   1.02829   1.03020   1.03235   1.03554
 Alpha virt. eigenvalues --    1.03716   1.04041   1.04196   1.04312   1.04543
 Alpha virt. eigenvalues --    1.04770   1.05060   1.05272   1.05465   1.05771
 Alpha virt. eigenvalues --    1.05904   1.06085   1.06325   1.06679   1.06997
 Alpha virt. eigenvalues --    1.07474   1.07527   1.07728   1.08018   1.08113
 Alpha virt. eigenvalues --    1.08413   1.08453   1.08977   1.09519   1.09630
 Alpha virt. eigenvalues --    1.09736   1.10327   1.10465   1.10811   1.11030
 Alpha virt. eigenvalues --    1.11191   1.11503   1.11891   1.12194   1.12460
 Alpha virt. eigenvalues --    1.12746   1.12944   1.13244   1.13371   1.13492
 Alpha virt. eigenvalues --    1.13762   1.14016   1.14196   1.14389   1.14764
 Alpha virt. eigenvalues --    1.14780   1.15141   1.15353   1.15500   1.16012
 Alpha virt. eigenvalues --    1.16264   1.16477   1.16842   1.16872   1.17083
 Alpha virt. eigenvalues --    1.17418   1.17598   1.17943   1.18345   1.18710
 Alpha virt. eigenvalues --    1.18858   1.19370   1.19504   1.19745   1.19938
 Alpha virt. eigenvalues --    1.20242   1.20627   1.20844   1.21002   1.21308
 Alpha virt. eigenvalues --    1.21538   1.21963   1.22419   1.22719   1.22842
 Alpha virt. eigenvalues --    1.23168   1.23455   1.23722   1.23958   1.24174
 Alpha virt. eigenvalues --    1.24636   1.24835   1.25113   1.25298   1.25786
 Alpha virt. eigenvalues --    1.26386   1.26439   1.26916   1.26997   1.27208
 Alpha virt. eigenvalues --    1.27366   1.27758   1.27966   1.28211   1.28475
 Alpha virt. eigenvalues --    1.28877   1.28954   1.29613   1.29896   1.30162
 Alpha virt. eigenvalues --    1.30369   1.30614   1.31053   1.31260   1.31585
 Alpha virt. eigenvalues --    1.31824   1.32099   1.32403   1.32724   1.32867
 Alpha virt. eigenvalues --    1.33513   1.33756   1.33800   1.34156   1.34449
 Alpha virt. eigenvalues --    1.34517   1.35065   1.35192   1.35406   1.35753
 Alpha virt. eigenvalues --    1.36150   1.36272   1.36445   1.36802   1.37277
 Alpha virt. eigenvalues --    1.37562   1.37781   1.38138   1.38451   1.38826
 Alpha virt. eigenvalues --    1.38873   1.39253   1.39403   1.39734   1.40072
 Alpha virt. eigenvalues --    1.40411   1.40977   1.41156   1.41758   1.41829
 Alpha virt. eigenvalues --    1.42012   1.42271   1.42758   1.42987   1.43041
 Alpha virt. eigenvalues --    1.43393   1.43633   1.44046   1.44310   1.44683
 Alpha virt. eigenvalues --    1.44894   1.45117   1.45302   1.45609   1.46007
 Alpha virt. eigenvalues --    1.46443   1.46640   1.46970   1.47244   1.47431
 Alpha virt. eigenvalues --    1.47715   1.47990   1.48218   1.48772   1.48964
 Alpha virt. eigenvalues --    1.49161   1.49513   1.49719   1.50179   1.50386
 Alpha virt. eigenvalues --    1.50937   1.51350   1.51426   1.51494   1.51876
 Alpha virt. eigenvalues --    1.52283   1.52472   1.52595   1.52959   1.53001
 Alpha virt. eigenvalues --    1.53341   1.53656   1.53777   1.53997   1.54335
 Alpha virt. eigenvalues --    1.54666   1.54903   1.55370   1.55467   1.56034
 Alpha virt. eigenvalues --    1.56457   1.56537   1.56765   1.56971   1.57155
 Alpha virt. eigenvalues --    1.57340   1.57728   1.57928   1.58267   1.58491
 Alpha virt. eigenvalues --    1.58691   1.59093   1.59414   1.59511   1.59883
 Alpha virt. eigenvalues --    1.60254   1.60452   1.60699   1.60827   1.61447
 Alpha virt. eigenvalues --    1.61518   1.61940   1.62381   1.62432   1.62800
 Alpha virt. eigenvalues --    1.63149   1.63443   1.63623   1.63909   1.64265
 Alpha virt. eigenvalues --    1.64969   1.65188   1.65759   1.66045   1.66081
 Alpha virt. eigenvalues --    1.66396   1.66751   1.66848   1.67502   1.67698
 Alpha virt. eigenvalues --    1.68337   1.68777   1.68934   1.69297   1.69892
 Alpha virt. eigenvalues --    1.70010   1.70118   1.71112   1.71307   1.71557
 Alpha virt. eigenvalues --    1.71824   1.72117   1.72294   1.72497   1.73002
 Alpha virt. eigenvalues --    1.73305   1.73739   1.74175   1.74249   1.74742
 Alpha virt. eigenvalues --    1.75296   1.76028   1.76421   1.76622   1.76852
 Alpha virt. eigenvalues --    1.77283   1.77673   1.78134   1.78326   1.78674
 Alpha virt. eigenvalues --    1.79487   1.79817   1.80010   1.80240   1.80401
 Alpha virt. eigenvalues --    1.81186   1.81614   1.82093   1.82278   1.82758
 Alpha virt. eigenvalues --    1.83074   1.83475   1.83969   1.84120   1.84735
 Alpha virt. eigenvalues --    1.85016   1.85544   1.85621   1.85702   1.85937
 Alpha virt. eigenvalues --    1.86574   1.87108   1.87363   1.87703   1.87748
 Alpha virt. eigenvalues --    1.88136   1.88500   1.88728   1.89357   1.89489
 Alpha virt. eigenvalues --    1.89805   1.90346   1.90752   1.90914   1.90924
 Alpha virt. eigenvalues --    1.91490   1.92114   1.92266   1.92424   1.92566
 Alpha virt. eigenvalues --    1.92835   1.93315   1.93405   1.93956   1.94111
 Alpha virt. eigenvalues --    1.94456   1.95653   1.95728   1.96117   1.96282
 Alpha virt. eigenvalues --    1.96511   1.96761   1.97094   1.97311   1.97630
 Alpha virt. eigenvalues --    1.97800   1.98003   1.98166   1.98731   1.99284
 Alpha virt. eigenvalues --    1.99593   1.99672   1.99905   2.00273   2.00567
 Alpha virt. eigenvalues --    2.00863   2.00953   2.01640   2.01803   2.01995
 Alpha virt. eigenvalues --    2.02042   2.02226   2.02585   2.02977   2.03111
 Alpha virt. eigenvalues --    2.03496   2.04027   2.04370   2.04645   2.04834
 Alpha virt. eigenvalues --    2.05031   2.05338   2.05528   2.05926   2.06204
 Alpha virt. eigenvalues --    2.06223   2.06741   2.07115   2.07312   2.07590
 Alpha virt. eigenvalues --    2.07860   2.08204   2.08353   2.08754   2.08906
 Alpha virt. eigenvalues --    2.09168   2.09415   2.09526   2.09931   2.10227
 Alpha virt. eigenvalues --    2.10610   2.10946   2.11102   2.11645   2.11850
 Alpha virt. eigenvalues --    2.11953   2.12068   2.12705   2.12974   2.13299
 Alpha virt. eigenvalues --    2.13316   2.13621   2.13738   2.13854   2.14088
 Alpha virt. eigenvalues --    2.14456   2.14526   2.14897   2.15398   2.15621
 Alpha virt. eigenvalues --    2.15879   2.16114   2.16417   2.16595   2.16928
 Alpha virt. eigenvalues --    2.17288   2.17373   2.17694   2.18050   2.18396
 Alpha virt. eigenvalues --    2.18475   2.18730   2.18874   2.19133   2.19169
 Alpha virt. eigenvalues --    2.19549   2.19752   2.20018   2.20053   2.20217
 Alpha virt. eigenvalues --    2.20747   2.20958   2.21246   2.21405   2.21727
 Alpha virt. eigenvalues --    2.22051   2.22200   2.22338   2.22967   2.23106
 Alpha virt. eigenvalues --    2.23442   2.23592   2.23743   2.24034   2.24076
 Alpha virt. eigenvalues --    2.24521   2.24864   2.25039   2.25293   2.25390
 Alpha virt. eigenvalues --    2.25520   2.25885   2.26168   2.26273   2.26497
 Alpha virt. eigenvalues --    2.26779   2.27018   2.27237   2.27582   2.27836
 Alpha virt. eigenvalues --    2.28176   2.28477   2.28589   2.28779   2.28941
 Alpha virt. eigenvalues --    2.29224   2.29429   2.29639   2.29956   2.30233
 Alpha virt. eigenvalues --    2.30333   2.30480   2.30825   2.31104   2.31536
 Alpha virt. eigenvalues --    2.31575   2.32027   2.32088   2.32144   2.32780
 Alpha virt. eigenvalues --    2.32873   2.33314   2.33612   2.33910   2.34075
 Alpha virt. eigenvalues --    2.34300   2.34524   2.34699   2.35071   2.35159
 Alpha virt. eigenvalues --    2.35490   2.35648   2.35915   2.36032   2.36359
 Alpha virt. eigenvalues --    2.36712   2.36822   2.37367   2.37657   2.38021
 Alpha virt. eigenvalues --    2.38131   2.38252   2.38444   2.38688   2.38932
 Alpha virt. eigenvalues --    2.39198   2.39419   2.39659   2.40025   2.40346
 Alpha virt. eigenvalues --    2.40538   2.40588   2.40896   2.41061   2.41625
 Alpha virt. eigenvalues --    2.41709   2.42014   2.42180   2.42410   2.42861
 Alpha virt. eigenvalues --    2.42905   2.43407   2.43468   2.43875   2.44491
 Alpha virt. eigenvalues --    2.44501   2.44758   2.44935   2.45404   2.45750
 Alpha virt. eigenvalues --    2.46041   2.46270   2.46438   2.46790   2.47025
 Alpha virt. eigenvalues --    2.47374   2.47504   2.47550   2.47755   2.48162
 Alpha virt. eigenvalues --    2.48385   2.48471   2.48660   2.48830   2.49306
 Alpha virt. eigenvalues --    2.49530   2.49917   2.50273   2.50565   2.50588
 Alpha virt. eigenvalues --    2.51126   2.51370   2.51430   2.51620   2.51975
 Alpha virt. eigenvalues --    2.52192   2.52334   2.52666   2.52911   2.53151
 Alpha virt. eigenvalues --    2.53313   2.53665   2.54125   2.54383   2.54818
 Alpha virt. eigenvalues --    2.54932   2.55151   2.55289   2.55424   2.55932
 Alpha virt. eigenvalues --    2.56345   2.56469   2.56570   2.56863   2.57741
 Alpha virt. eigenvalues --    2.57911   2.58147   2.58409   2.58713   2.58914
 Alpha virt. eigenvalues --    2.59055   2.59189   2.59683   2.59917   2.60146
 Alpha virt. eigenvalues --    2.60253   2.60577   2.60797   2.61242   2.61521
 Alpha virt. eigenvalues --    2.62005   2.62155   2.62351   2.62435   2.62783
 Alpha virt. eigenvalues --    2.63195   2.63266   2.63396   2.63734   2.63813
 Alpha virt. eigenvalues --    2.64236   2.64338   2.64691   2.64922   2.65093
 Alpha virt. eigenvalues --    2.65340   2.65475   2.65914   2.66046   2.66240
 Alpha virt. eigenvalues --    2.66710   2.66837   2.66967   2.67273   2.67390
 Alpha virt. eigenvalues --    2.67577   2.67949   2.68238   2.68614   2.68737
 Alpha virt. eigenvalues --    2.69199   2.69426   2.69481   2.69860   2.70262
 Alpha virt. eigenvalues --    2.70368   2.70801   2.70953   2.71451   2.71780
 Alpha virt. eigenvalues --    2.71977   2.72336   2.72514   2.72704   2.72829
 Alpha virt. eigenvalues --    2.73189   2.73740   2.73843   2.74028   2.74298
 Alpha virt. eigenvalues --    2.74548   2.74738   2.75188   2.75521   2.75889
 Alpha virt. eigenvalues --    2.76028   2.76357   2.76529   2.76824   2.76974
 Alpha virt. eigenvalues --    2.77181   2.77327   2.77499   2.77855   2.77908
 Alpha virt. eigenvalues --    2.78344   2.78896   2.79204   2.79341   2.79561
 Alpha virt. eigenvalues --    2.79958   2.80009   2.80096   2.80282   2.80628
 Alpha virt. eigenvalues --    2.80875   2.81183   2.81319   2.81929   2.82300
 Alpha virt. eigenvalues --    2.82466   2.82650   2.82852   2.83155   2.83450
 Alpha virt. eigenvalues --    2.83796   2.83854   2.84225   2.84714   2.84955
 Alpha virt. eigenvalues --    2.85007   2.85602   2.85648   2.86169   2.86263
 Alpha virt. eigenvalues --    2.86477   2.86808   2.86829   2.87210   2.87392
 Alpha virt. eigenvalues --    2.87517   2.87913   2.88119   2.88266   2.88760
 Alpha virt. eigenvalues --    2.89177   2.89532   2.89685   2.89817   2.89942
 Alpha virt. eigenvalues --    2.90218   2.90617   2.90776   2.90986   2.91499
 Alpha virt. eigenvalues --    2.91585   2.91728   2.91885   2.92294   2.92472
 Alpha virt. eigenvalues --    2.92760   2.93014   2.93080   2.93644   2.93778
 Alpha virt. eigenvalues --    2.94224   2.94549   2.94666   2.94769   2.94978
 Alpha virt. eigenvalues --    2.95642   2.95760   2.96204   2.96393   2.96585
 Alpha virt. eigenvalues --    2.96715   2.96996   2.97491   2.97641   2.97770
 Alpha virt. eigenvalues --    2.98056   2.98206   2.98263   2.98614   2.98939
 Alpha virt. eigenvalues --    2.99040   2.99166   2.99500   2.99729   2.99975
 Alpha virt. eigenvalues --    3.00241   3.00412   3.00882   3.00981   3.01114
 Alpha virt. eigenvalues --    3.01195   3.01526   3.01875   3.02214   3.02432
 Alpha virt. eigenvalues --    3.02719   3.02928   3.03385   3.03566   3.03813
[...]
 Alpha virt. eigenvalues --    7.76481   7.76687   7.76912   7.77297   7.77646
 Alpha virt. eigenvalues --    7.77685   7.78267   7.78410   7.78645   7.78838
 Alpha virt. eigenvalues --    7.79085   7.79246   7.79571   7.80202   7.80505
 Alpha virt. eigenvalues --    7.80817   7.80953   7.81170   7.81346   7.81512
 Alpha virt. eigenvalues --    7.81786   7.82436   7.83013   7.83160   7.83440
 Alpha virt. eigenvalues --    7.83553   7.83898   7.84020   7.84247   7.84510
 Alpha virt. eigenvalues --    7.84739   7.84951   7.85607   7.85703   7.86050
 Alpha virt. eigenvalues --    7.86216   7.86326   7.86505   7.86800   7.87077
 Alpha virt. eigenvalues --    7.87430   7.87609   7.87853   7.87962   7.88304
 Alpha virt. eigenvalues --    7.88718   7.89020   7.89319   7.90247   7.90625
 Alpha virt. eigenvalues --    7.90706   7.90827   7.91114   7.91496   7.91582
 Alpha virt. eigenvalues --    7.91911   7.92075   7.92391   7.92637   7.93314
 Alpha virt. eigenvalues --    7.93580   7.93749   7.94222   7.94401   7.94758
 Alpha virt. eigenvalues --    7.94958   7.95149   7.95355   7.95510   7.95760
 Alpha virt. eigenvalues --    7.96461   7.96658   7.96760   7.97040   7.97279
 Alpha virt. eigenvalues --    7.97796   7.97978   7.98522   7.98658   7.99138
 Alpha virt. eigenvalues --    7.99356   7.99541   7.99826   8.00137   8.00935
 Alpha virt. eigenvalues --    8.01182   8.01474   8.01641   8.02177   8.02288
 Alpha virt. eigenvalues --    8.02636   8.03589   8.03879   8.04084   8.04254
 Alpha virt. eigenvalues --    8.04685   8.04765   8.05199   8.05408   8.06048
 Alpha virt. eigenvalues --    8.06242   8.06350   8.06643   8.07082   8.07158
 Alpha virt. eigenvalues --    8.07606   8.07904   8.08237   8.08876   8.09516
 Alpha virt. eigenvalues --    8.09687   8.09945   8.10229   8.10583   8.11099
 Alpha virt. eigenvalues --    8.11332   8.11731   8.11960   8.12351   8.12831
 Alpha virt. eigenvalues --    8.13471   8.13535   8.13955   8.14190   8.14388
 Alpha virt. eigenvalues --    8.14645   8.15092   8.15379   8.15770   8.16095
 Alpha virt. eigenvalues --    8.16540   8.16882   8.17108   8.17228   8.17584
 Alpha virt. eigenvalues --    8.17850   8.18226   8.18582   8.18942   8.19177
 Alpha virt. eigenvalues --    8.19385   8.19683   8.20144   8.20482   8.20858
 Alpha virt. eigenvalues --    8.21130   8.21265   8.21848   8.22193   8.22349
 Alpha virt. eigenvalues --    8.22526   8.22857   8.23232   8.23375   8.23969
 Alpha virt. eigenvalues --    8.24129   8.24588   8.24771   8.25002   8.25182
 Alpha virt. eigenvalues --    8.25496   8.25842   8.26137   8.26453   8.26671
 Alpha virt. eigenvalues --    8.27100   8.27459   8.27682   8.28154   8.28373
 Alpha virt. eigenvalues --    8.28731   8.29441   8.29846   8.30188   8.30290
 Alpha virt. eigenvalues --    8.30770   8.30880   8.31245   8.31814   8.31925
 Alpha virt. eigenvalues --    8.32372   8.32608   8.33226   8.33392   8.33809
 Alpha virt. eigenvalues --    8.34191   8.34687   8.34841   8.34983   8.35132
 Alpha virt. eigenvalues --    8.35258   8.35732   8.35901   8.36449   8.36567
 Alpha virt. eigenvalues --    8.36688   8.37048   8.37611   8.37825   8.38145
 Alpha virt. eigenvalues --    8.38545   8.39006   8.39190   8.39669   8.39946
 Alpha virt. eigenvalues --    8.40300   8.40808   8.41072   8.41586   8.41933
 Alpha virt. eigenvalues --    8.42200   8.42631   8.42756   8.43323   8.43489
 Alpha virt. eigenvalues --    8.43642   8.43814   8.44071   8.44529   8.44662
 Alpha virt. eigenvalues --    8.45334   8.45492   8.45638   8.46000   8.46298
 Alpha virt. eigenvalues --    8.46918   8.47173   8.47345   8.47520   8.48038
 Alpha virt. eigenvalues --    8.48392   8.48551   8.48645   8.48770   8.48925
 Alpha virt. eigenvalues --    8.49146   8.49902   8.50239   8.50597   8.50992
 Alpha virt. eigenvalues --    8.51370   8.51542   8.51699   8.51940   8.52163
 Alpha virt. eigenvalues --    8.52781   8.52964   8.53344   8.53443   8.53851
 Alpha virt. eigenvalues --    8.54331   8.54777   8.54991   8.55211   8.55417
 Alpha virt. eigenvalues --    8.55676   8.56185   8.56408   8.56822   8.57207
 Alpha virt. eigenvalues --    8.57562   8.57837   8.58199   8.58698   8.58760
 Alpha virt. eigenvalues --    8.59403   8.59845   8.60075   8.60430   8.60637
 Alpha virt. eigenvalues --    8.61422   8.61578   8.61817   8.62098   8.62365
 Alpha virt. eigenvalues --    8.62691   8.63067   8.63155   8.63613   8.63715
 Alpha virt. eigenvalues --    8.64394   8.64582   8.65188   8.65794   8.65975
 Alpha virt. eigenvalues --    8.66122   8.66535   8.66774   8.67256   8.67883
 Alpha virt. eigenvalues --    8.68002   8.68193   8.68667   8.69142   8.69358
 Alpha virt. eigenvalues --    8.69544   8.70089   8.70235   8.70738   8.70976
 Alpha virt. eigenvalues --    8.71454   8.71633   8.72013   8.72119   8.72576
 Alpha virt. eigenvalues --    8.73120   8.73389   8.73532   8.73831   8.74295
 Alpha virt. eigenvalues --    8.74700   8.75094   8.75165   8.75572   8.76013
 Alpha virt. eigenvalues --    8.76175   8.76772   8.76850   8.77539   8.77973
 Alpha virt. eigenvalues --    8.78423   8.78654   8.78723   8.79191   8.79612
 Alpha virt. eigenvalues --    8.80092   8.80155   8.80876   8.81352   8.81505
 Alpha virt. eigenvalues --    8.81810   8.82093   8.82571   8.82980   8.83426
 Alpha virt. eigenvalues --    8.83603   8.83782   8.83907   8.84456   8.84726
 Alpha virt. eigenvalues --    8.85585   8.85783   8.85986   8.86194   8.86572
 Alpha virt. eigenvalues --    8.86740   8.86917   8.87470   8.87798   8.87901
 Alpha virt. eigenvalues --    8.88720   8.88982   8.89410   8.89982   8.90027
 Alpha virt. eigenvalues --    8.90871   8.91075   8.91539   8.91814   8.92408
 Alpha virt. eigenvalues --    8.92627   8.93304   8.93419   8.93892   8.94133
 Alpha virt. eigenvalues --    8.94436   8.95189   8.95539   8.95730   8.96111
 Alpha virt. eigenvalues --    8.96785   8.96981   8.97526   8.97650   8.97923
 Alpha virt. eigenvalues --    8.98511   8.99354   8.99627   9.00045   9.00609
 Alpha virt. eigenvalues --    9.01612   9.01817   9.02431   9.03042   9.03306
 Alpha virt. eigenvalues --    9.03762   9.04080   9.04858   9.05522   9.05788
 Alpha virt. eigenvalues --    9.06117   9.06477   9.07098   9.07846   9.08086
 Alpha virt. eigenvalues --    9.08649   9.08858   9.09583   9.10079   9.10790
 Alpha virt. eigenvalues --    9.11474   9.12321   9.12692   9.13295   9.13634
 Alpha virt. eigenvalues --    9.14119   9.14267   9.15084   9.15880   9.16945
 Alpha virt. eigenvalues --    9.17155   9.17771   9.18582   9.19392   9.19917
 Alpha virt. eigenvalues --    9.21262   9.21931   9.22752   9.23898   9.24175
 Alpha virt. eigenvalues --    9.25076   9.25121   9.26545   9.26803   9.27781
 Alpha virt. eigenvalues --    9.28156   9.29560   9.30180   9.30489   9.31733
 Alpha virt. eigenvalues --    9.32070   9.32977   9.33937   9.35260   9.36573
 Alpha virt. eigenvalues --    9.37441   9.38875   9.40436   9.41379   9.42000
 Alpha virt. eigenvalues --    9.42807   9.42945   9.45115   9.46344   9.47437
 Alpha virt. eigenvalues --    9.48197   9.50745   9.51144   9.52409   9.52723
 Alpha virt. eigenvalues --    9.53546   9.55532   9.56821   9.57926   9.58379
 Alpha virt. eigenvalues --    9.59056   9.59312   9.59507   9.60326   9.60696
 Alpha virt. eigenvalues --    9.60766   9.61059   9.61317   9.61871   9.62588
 Alpha virt. eigenvalues --    9.62859   9.62964   9.63375   9.63675   9.64140
 Alpha virt. eigenvalues --    9.64529   9.64756   9.65139   9.65431   9.65597
 Alpha virt. eigenvalues --    9.66082   9.66412   9.66827   9.67052   9.67317
 Alpha virt. eigenvalues --    9.67950   9.68132   9.68818   9.69131   9.69305
 Alpha virt. eigenvalues --    9.69569   9.70150   9.71005   9.71615   9.71796
 Alpha virt. eigenvalues --    9.71950   9.72864   9.73191   9.73411   9.74163
 Alpha virt. eigenvalues --    9.74750   9.75170   9.75189   9.75728   9.76041
 Alpha virt. eigenvalues --    9.76567   9.77329   9.77355   9.77673   9.77949
 Alpha virt. eigenvalues --    9.78428   9.78726   9.79203   9.80348   9.80772
 Alpha virt. eigenvalues --    9.81127   9.81995   9.82413   9.82889   9.83256
 Alpha virt. eigenvalues --    9.83687   9.84559   9.84876   9.85919   9.86140
 Alpha virt. eigenvalues --    9.86638   9.87696   9.87818   9.87963   9.88328
 Alpha virt. eigenvalues --    9.88477   9.89738   9.89925   9.90527   9.90757
 Alpha virt. eigenvalues --    9.91025   9.91911   9.92397   9.92684   9.93642
 Alpha virt. eigenvalues --    9.93839   9.94229   9.94297   9.95063   9.96103
 Alpha virt. eigenvalues --    9.96218   9.96687   9.97248   9.97634   9.97870
 Alpha virt. eigenvalues --    9.98629   9.98895  10.00079  10.00686  10.01664
 Alpha virt. eigenvalues --   10.01804  10.02177  10.02961  10.03312  10.03641
 Alpha virt. eigenvalues --   10.03764  10.05212  10.05539  10.06379  10.06803
 Alpha virt. eigenvalues --   10.07046  10.07516  10.08149  10.09032  10.10027
 Alpha virt. eigenvalues --   10.10719  10.11694  10.12600  10.13523  10.14342
 Alpha virt. eigenvalues --   10.14420  10.14840  10.15665  10.16128  10.16367
 Alpha virt. eigenvalues --   10.17090  10.17484  10.18091  10.18362  10.19304
 Alpha virt. eigenvalues --   10.19436  10.19661  10.20500  10.21226  10.21963
 Alpha virt. eigenvalues --   10.23118  10.23207  10.25242  10.25620  10.26803
 Alpha virt. eigenvalues --   10.27640  10.30209  10.30962  10.31797  10.32689
 Alpha virt. eigenvalues --   10.33099  10.34795  10.35082  10.35796  10.37010
 Alpha virt. eigenvalues --   10.38736  10.42135  10.43125  10.43242  10.46296
 Alpha virt. eigenvalues --   10.50396  10.51757  10.57609  10.67373  10.73973
 Alpha virt. eigenvalues --   10.82087  10.94248  11.08443  11.34851  11.41958
 Alpha virt. eigenvalues --   11.60337  11.65658  11.70628  11.80326  11.97447
 Alpha virt. eigenvalues --   11.98512  12.00777  12.04099  12.05756  12.16264
 Alpha virt. eigenvalues --   12.20093  12.24030  12.25110  12.26734  12.29334
 Alpha virt. eigenvalues --   12.30911  12.32271  12.32633  12.34158  12.35562
 Alpha virt. eigenvalues --   12.36675  12.38114  12.39425  12.42228  12.46423
 Alpha virt. eigenvalues --   12.52187  12.52474  12.53300  12.53894  12.55287
 Alpha virt. eigenvalues --   12.57470  12.57737  12.61349  12.64393  12.83640
 Alpha virt. eigenvalues --   12.86914  12.90371  12.98263  12.99252  12.99437
 Alpha virt. eigenvalues --   13.02498  13.03062  13.03279  13.04238  13.09523
 Alpha virt. eigenvalues --   13.09763  13.11509  13.14271  13.15400  13.18522
 Alpha virt. eigenvalues --   13.19141  13.20085  13.23352  13.26162  13.28776
 Alpha virt. eigenvalues --   13.30034  13.31161  13.71859  13.91198  14.43129
 Alpha virt. eigenvalues --   16.45955  28.38641  28.59203  28.99274  29.00804
 Alpha virt. eigenvalues --   29.02328  29.03339  29.05357  29.09104  29.10146
 Alpha virt. eigenvalues --   29.10602  29.13028  29.14231  29.15421  29.15822
 Alpha virt. eigenvalues --   29.17834  29.20504  29.21886  29.22886  29.23391
 Alpha virt. eigenvalues --   29.24625  29.24994  29.25630  29.26608  29.27838
 Alpha virt. eigenvalues --   29.29703  29.31832  29.35331  29.36395  29.37216
 Alpha virt. eigenvalues --   29.44534  48.52536 145.87389 146.11898 146.50536
 Alpha virt. eigenvalues --  146.50719 146.53538 146.56651 146.57345 146.61032
 Alpha virt. eigenvalues --  146.61777 146.63681 146.63994 146.66129 146.68332
 Alpha virt. eigenvalues --  146.69251 146.70873 146.72799 146.74410 146.75808
 Alpha virt. eigenvalues --  146.77048 146.78208 146.78685 146.79182 146.80645
 Alpha virt. eigenvalues --  146.81511 146.84845 146.87157 146.88718 146.93478
 Alpha virt. eigenvalues --  146.94713 147.02365 251.64376
          Condensed to atoms (all electrons):
 Mulliken charges:
               1
     1  C   -0.484472
     2  C   -0.141958
     3  C   -0.151649
     4  C   -0.178740
     5  C   -0.189550
     6  C   -0.535421
     7  C   -0.549332
     8  C   -0.700388
     9  C    0.184515
    10  C   -0.060649
    11  C   -0.704110
    12  C   -0.710555
    13  C   -0.655775
    14  C   -0.505561
    15  C   -0.058806
    16  C   -0.123594
    17  C   -0.449241
    18  C   -0.500559
    19  C   -0.487431
    20  C   -0.182738
    21  C   -0.521185
    22  C   -0.645350
    23  C   -0.305192
    24  C    0.188765
    25  C   -0.732945
    26  C   -0.650110
    27  C   -0.751733
    28  O   -0.419150
    29  C   -0.771683
    30  C   -0.809176
    31  H    0.286465
    32  H    0.281851
    33  C   -0.782218
    34  H    0.224253
    35  H    0.225736
    36  H    0.245216
    37  H    0.322301
    38  H    0.255585
    39  H    0.211781
    40  H    0.379779
    41  H    0.251987
    42  H    0.303614
    43  H    0.335603
    44  H    0.198159
    45  H    0.254296
    46  H    0.247165
    47  H    0.246010
    48  H    0.202709
    49  H    0.325123
    50  H    0.292248
    51  H    0.329017
    52  H    0.194670
    53  H    0.229627
    54  H    0.274256
    55  H    0.263805
    56  H    0.250811
    57  H    0.234824
    58  H    0.359104
    59  H    0.223077
    60  H    0.281564
    61  H    0.249939
    62  H    0.219333
    63  H    0.212926
    64  H    0.256207
    65  H    0.255177
    66  H    0.189075
    67  H    0.216669
    68  H    0.213290
    69  H    0.240209
    70  H    0.242106
    71  H    0.232633
    72  H    0.323589
    73  H    0.325709
    74  H    0.280789
    75  H    0.272046
    76  H    0.369922
    77  H    0.265923
    78  H    0.320074
    79  H    0.346311
    80  H    0.278083
    81  H    0.345343
 Sum of Mulliken charges =  -0.00000
 Mulliken charges with hydrogens summed into heavy atoms:
               1
     1  C   -0.034483
     2  C    0.103258
     3  C   -0.151649
     4  C    0.103111
     5  C   -0.189550
     6  C    0.042465
     7  C    0.042229
     8  C   -0.144787
     9  C    0.184515
    10  C   -0.060649
    11  C    0.083949
    12  C   -0.014671
    13  C   -0.038403
    14  C    0.018125
    15  C   -0.058806
    16  C   -0.123594
    17  C   -0.219614
    18  C    0.037502
    19  C   -0.001796
    20  C    0.103727
    21  C    0.060995
    22  C   -0.113846
    23  C   -0.085858
    24  C    0.188765
    25  C   -0.008636
    26  C   -0.031076
    27  C   -0.036784
    28  O   -0.095561
    29  C    0.106861
    30  C    0.146743
    33  C    0.187519
 Electronic spatial extent (au):  <R**2>=          19001.8840
 Charge=              0.0000 electrons
 Dipole moment (field-independent basis, Debye):
    X=             -0.8859    Y=              0.2466    Z=              1.4539  Tot=              1.7203
 Quadrupole moment (field-independent basis, Debye-Ang):
   XX=           -191.1048   YY=           -200.3593   ZZ=           -200.3747
   XY=             -3.2355   XZ=             -5.1450   YZ=             -2.7085
 Traceless Quadrupole moment (field-independent basis, Debye-Ang):
   XX=              6.1748   YY=             -3.0797   ZZ=             -3.0951
   XY=             -3.2355   XZ=             -5.1450   YZ=             -2.7085
 Octapole moment (field-independent basis, Debye-Ang**2):
  XXX=           -130.3630  YYY=            -10.2903  ZZZ=             -2.2635  XYY=            -11.7624
  XXY=              8.1153  XXZ=             29.1950  XZZ=             18.0955  YZZ=              4.0108
  YYZ=              6.6225  XYZ=              3.1266
 Hexadecapole moment (field-independent basis, Debye-Ang**3):
 XXXX=         -20408.1691 YYYY=          -3075.1727 ZZZZ=          -2181.1439 XXXY=           -149.6262
 XXXZ=             -3.4557 YYYX=             27.8023 YYYZ=              3.8979 ZZZX=             -4.5765
 ZZZY=             -1.0712 XXYY=          -4115.5096 XXZZ=          -3938.5964 YYZZ=           -895.2302
 XXYZ=           -125.7268 YYXZ=             25.8266 ZZXY=            -28.9955
 N-N= 3.407480973032D+03 E-N=-9.709438006924D+03  KE= 1.241731084789D+03
 No NMR shielding tensors so no spin-rotation constants.
 Leave Link  601 at Thu Apr 22 16:06:56 2021, MaxMem= 12079595520 cpu:            2916.0 elap:              63.5
 (Enter /s/ls4/groups/g0130/bin/g16/l9999.exe)

 Test job not archived.
 1\1\GINC-N101\Stability\RM062X\def2QZVP\C30H50O1\ROOT\22-Apr-2021\0\\#
 P M062X/Def2QZVP Integral=UltraFineGrid SCF=NoSymm Stable=(RExt, Opt) 
 IOp(1/33=1)\\Database calculations.\\0,1\C,0,-4.6432772,2.4758772,0.48
 90827\C,0,-5.8123165,1.5069152,0.3896384\C,0,-5.4434607,0.313873,-0.56
 80113\C,0,-3.8899304,0.101341,-0.648661\C,0,-3.0954735,0.3601888,0.667
 5316\C,0,-3.3602599,1.8521893,1.0849746\C,0,-3.4895161,-1.2372279,-1.2
 746682\C,0,-2.0152004,-1.1977607,-1.6798118\C,0,-1.1241792,-0.57963,-0
 .6296873\C,0,-1.5884082,0.1284371,0.4225384\C,0,-6.2147789,-0.9602961,
 -0.174003\C,0,-5.9182807,0.7259445,-1.9803267\C,0,-0.6596103,0.6620104
 ,1.5152699\C,0,0.86501,0.438025,1.3281626\C,0,1.1279545,-0.8200011,0.5
 061121\C,0,0.375258,-0.687527,-0.8596046\C,0,2.5862213,-1.0416739,0.04
 54554\C,0,2.4350568,-1.9899524,-1.1896474\C,0,0.9379637,-1.905563,-1.6
 338573\C,0,3.610435,-1.4391826,1.1451322\C,0,4.966914,-0.7446761,0.891
 6044\C,0,4.9507794,0.7624807,1.2316814\C,0,6.2003991,1.4759258,0.78283
 05\C,0,6.4063585,2.028018,-0.4241181\C,0,3.8266799,-2.9512858,1.323531
 2\C,0,7.7172253,2.6889688,-0.7757738\C,0,5.3801343,2.0382254,-1.531962
 \O,0,-6.1759299,1.1379962,1.7373943\C,0,0.7636522,0.5828127,-1.6743227
 \C,0,0.628986,-2.0450879,1.309643\H,0,3.2195115,-1.0482544,2.0979183\H
 ,0,-3.525718,0.8772372,-1.3413416\C,0,-3.534419,-0.5890847,1.8118627\H
 ,0,-4.9401981,3.3500658,1.0816901\H,0,-4.4365584,2.8313765,-0.5289641\
 H,0,-6.6759051,2.030043,-0.0554938\H,0,-3.3934969,1.9205067,2.1783903\
 H,0,-2.5246965,2.4796469,0.7523099\H,0,-4.1105739,-1.4569492,-2.152353
 2\H,0,-3.6547751,-2.0502618,-0.5570102\H,0,-1.6598473,-2.2137261,-1.90
 10919\H,0,-1.9047736,-0.6334162,-2.6222324\H,0,-5.8934506,-1.3586283,0
 .7918665\H,0,-7.2937701,-0.7463667,-0.1252168\H,0,-6.0750837,-1.740643
 1,-0.9303818\H,0,-5.48743,1.6946449,-2.2670383\H,0,-5.6135426,-0.01689
 33,-2.7276297\H,0,-7.0129789,0.8132263,-2.0090192\H,0,-0.9626293,0.185
 3071,2.4583319\H,0,-0.8378991,1.7328865,1.6722214\H,0,1.3202774,1.3009
 146,0.8274247\H,0,1.3418901,0.3611171,2.315399\H,0,2.9192732,-0.071270
 5,-0.3384915\H,0,3.1097938,-1.6826678,-1.9973946\H,0,2.6913838,-3.0229
 533,-0.9372908\H,0,0.4066077,-2.8209515,-1.3504722\H,0,0.8305139,-1.78
 92627,-2.7189245\H,0,5.2445265,-0.8740395,-0.164952\H,0,5.7553168,-1.2
 313455,1.484202\H,0,4.0642098,1.2262026,0.7815314\H,0,4.8321254,0.8687
 73,2.3197806\H,0,7.0252738,1.5046078,1.4986801\H,0,4.4389187,-3.135074
 3,2.2165184\H,0,4.3605701,-3.3728192,0.4611561\H,0,2.8819661,-3.493369
 5,1.4360994\H,0,8.4234691,2.6573099,0.0629502\H,0,8.1838607,2.1962263,
 -1.6435176\H,0,7.5605001,3.7417868,-1.0597041\H,0,4.4529873,1.5231835,
 -1.2612004\H,0,5.7893389,1.5525096,-2.4314372\H,0,5.1320397,3.0717643,
 -1.8204128\H,0,-6.9570709,0.5728285,1.6789182\H,0,0.5404111,1.5008458,
 -1.1221397\H,0,0.1678745,0.5939476,-2.5963304\H,0,1.8209352,0.5872253,
 -1.9667371\H,0,-0.4419269,-1.9707129,1.5196925\H,0,1.1690296,-2.094860
 1,2.2629855\H,0,0.806266,-2.9835592,0.7749154\H,0,-4.5616304,-0.381001
 9,2.1154575\H,0,-2.8987245,-0.4370521,2.6918312\H,0,-3.4401776,-1.6383
 841,1.5085172\\Version=ES64L-G16RevA.03\State=1-A\HF=-1248.5113405\RMS
 D=9.688e-10\Dipole=-0.3473522,-0.1243865,-0.5674304\Quadrupole=4.56478
 71,-2.4608606,-2.1039265,2.6034068,3.725405,-1.9910013\PG=C01 [X(C30H5
 0O1)]\\@


 THE MOST SERIOUS THREAT TO THE SURVIVAL OF MANKIND IS NOT NOW
 IGNORANCE IN THE TRADITIONAL SENSE,
 BUT A MORALLY NEUTRAL, AN INSENSITIVE OR INHIBITED HUMAN INTELLIGENCE.

                     -- MARGO JEFFERSON IN NEWSWEEK, SEPTEMBER 2, 1974
 Job cpu time:     106 days 10 hours 28 minutes 59.0 seconds.
 Elapsed time:       2 days  5 hours 30 minutes 44.3 seconds.
 File lengths (MBytes):  RWF=  17984 Int=      0 D2E=      0 Chk=   1172 Scr=      1
 Normal termination of Gaussian 16 at Thu Apr 22 16:06:59 2021.
