 Entering Gaussian System, Link 0=/s/ls4/users/knvvv/bin/g16sse/g16
 Input=data/database/M062X--def2-QZVPPD--266_PyPy_T3-4p1_dim_NBC10.gjf
 Output=data/database/M062X--def2-QZVPPD--266_PyPy_T3-4p1_dim_NBC10.log
 Initial command:
 /s/ls4/users/knvvv/bin/g16sse/l1.exe "/s/ls4/users/knvvv/bin/scratch/Gau-14251.inp" -scrdir="/s/ls4/users/knvvv/bin/scratch/"
 Entering Link 1 = /s/ls4/users/knvvv/bin/g16sse/l1.exe PID=     14252.
  
 Copyright (c) 1988,1990,1992,1993,1995,1998,2003,2009,2016,
            Gaussian, Inc.  All Rights Reserved.
  
 This is part of the Gaussian(R) 16 program.  It is based on
 the Gaussian(R) 09 system (copyright 2009, Gaussian, Inc.),
 the Gaussian(R) 03 system (copyright 2003, Gaussian, Inc.),
 the Gaussian(R) 98 system (copyright 1998, Gaussian, Inc.),
 the Gaussian(R) 94 system (copyright 1995, Gaussian, Inc.),
 the Gaussian 92(TM) system (copyright 1992, Gaussian, Inc.),
 the Gaussian 90(TM) system (copyright 1990, Gaussian, Inc.),
 the Gaussian 88(TM) system (copyright 1988, Gaussian, Inc.),
 the Gaussian 86(TM) system (copyright 1986, Carnegie Mellon
 University), and the Gaussian 82(TM) system (copyright 1983,
 Carnegie Mellon University). Gaussian is a federally registered
 trademark of Gaussian, Inc.
  
 This software contains proprietary and confidential information,
 including trade secrets, belonging to Gaussian, Inc.
  
 This software is provided under written license and may be
 used, copied, transmitted, or stored only in accord with that
 written license.
  
 The following legend is applicable only to US Government
 contracts under FAR:
  
                    RESTRICTED RIGHTS LEGEND
  
 Use, reproduction and disclosure by the US Government is
 subject to restrictions as set forth in subparagraphs (a)
 and (c) of the Commercial Computer Software - Restricted
 Rights clause in FAR 52.227-19.
  
 Gaussian, Inc.
 340 Quinnipiac St., Bldg. 40, Wallingford CT 06492
  
  
 ---------------------------------------------------------------
 Warning -- This program may not be used in any manner that
 competes with the business of Gaussian, Inc. or will provide
 assistance to any competitor of Gaussian, Inc.  The licensee
 of this program is prohibited from giving any competitor of
 Gaussian, Inc. access to this program.  By using this program,
 the user acknowledges that Gaussian, Inc. is engaged in the
 business of creating and licensing software in the field of
 computational chemistry and represents and warrants to the
 licensee that it is not a competitor of Gaussian, Inc. and that
 it will not use this program in any manner prohibited above.
 ---------------------------------------------------------------
  

 Cite this work as:
 Gaussian 16, Revision A.03,
 M. J. Frisch, G. W. Trucks, H. B. Schlegel, G. E. Scuseria, 
 M. A. Robb, J. R. Cheeseman, G. Scalmani, V. Barone, 
 G. A. Petersson, H. Nakatsuji, X. Li, M. Caricato, A. V. Marenich, 
 J. Bloino, B. G. Janesko, R. Gomperts, B. Mennucci, H. P. Hratchian, 
 J. V. Ortiz, A. F. Izmaylov, J. L. Sonnenberg, D. Williams-Young, 
 F. Ding, F. Lipparini, F. Egidi, J. Goings, B. Peng, A. Petrone, 
 T. Henderson, D. Ranasinghe, V. G. Zakrzewski, J. Gao, N. Rega, 
 G. Zheng, W. Liang, M. Hada, M. Ehara, K. Toyota, R. Fukuda, 
 J. Hasegawa, M. Ishida, T. Nakajima, Y. Honda, O. Kitao, H. Nakai, 
 T. Vreven, K. Throssell, J. A. Montgomery, Jr., J. E. Peralta, 
 F. Ogliaro, M. J. Bearpark, J. J. Heyd, E. N. Brothers, K. N. Kudin, 
 V. N. Staroverov, T. A. Keith, R. Kobayashi, J. Normand, 
 K. Raghavachari, A. P. Rendell, J. C. Burant, S. S. Iyengar, 
 J. Tomasi, M. Cossi, J. M. Millam, M. Klene, C. Adamo, R. Cammi, 
 J. W. Ochterski, R. L. Martin, K. Morokuma, O. Farkas, 
 J. B. Foresman, and D. J. Fox, Gaussian, Inc., Wallingford CT, 2016.
 
 ******************************************
 Gaussian 16:  ES64L-G16RevA.03 25-Dec-2016
                18-Apr-2021 
 ******************************************
 %RWF=temp6_88979,70GB
 %nprocshared=48
 Will use up to   48 processors via shared memory.
 Default route: MaxDisk=80GB
 ----------------------------------------------------------------------
 #P M062X/GEN Integral=UltraFineGrid SCF=NoSymm Stable=(RExt, Opt) IOp(
 1/33=1)
 ----------------------------------------------------------------------
 1/33=1,38=1,172=1/1;
 2/12=2,17=6,18=5,40=1/2;
 3/5=7,11=2,25=1,30=1,74=-55,75=-5/1,2,3;
 4/9=2/1;
 5/5=2,38=5/2;
 6/7=2,8=2,9=2,10=2,28=1/1;
 8/6=1,10=90,11=11/1;
 9/8=-3,42=1,46=1/14;
 5/5=2,8=3,17=40,38=5/8(-2);
 6/7=2,8=2,9=2,10=2,28=1/1;
 99/5=1,9=1/99;
 Leave Link    1 at Sun Apr 18 01:40:32 2021, MaxMem=           0 cpu:               8.4 elap:               0.2
 (Enter /s/ls4/users/knvvv/bin/g16sse/l101.exe)
 ONIOM data not found on unit 2.
 ----------------------
 Database calculations.
 ----------------------
 TstMul:  ICh=     0
 TstMul:  Mul=     1
 TstMul:  ICh=     0
 TstMul:  Mul=     1
 Symbolic Z-matrix:
 Charge =  0 Multiplicity = 1
 N                     1.39804   0.        0. 
 C                     0.69854   1.14013   0. 
 C                    -0.69418   1.19534   0. 
 C                    -1.40675   0.        0. 
 C                    -0.69418  -1.19534   0. 
 C                     0.69854  -1.14013   0. 
 H                     1.28167   2.05688   0. 
 H                    -1.19993   2.15255   0. 
 H                    -2.48855   0.        0. 
 H                    -1.19993  -2.15255   0. 
 H                     1.28167  -2.05688   0. 
 N                    -1.39804   0.        4.1 
 C                    -0.69854   0.        5.24013 
 C                     0.69418   0.        5.29534 
 C                     1.40675   0.        4.1 
 C                     0.69418   0.        2.90466 
 C                    -0.69854   0.        2.95987 
 H                    -1.28167   0.        6.15688 
 H                     1.19993   0.        6.25255 
 H                     2.48855   0.        4.1 
 H                     1.19993   0.        1.94745 
 H                    -1.28167   0.        2.04312 
 
 RdStrC is calling ZToCFu for IStruc=1 NZ=    22.
 PrtBox:  NBox=     4 Levels=  2 BoxLen=    8.00 SMaxX=       11.82
          Shift=            4.702672            4.067726            0.000000
 Box      1 Number                   0 centers from      1 to     16:
 Box      2 Number                   1 centers from     17 to     20:
 Box      3 Number                   2 centers from     21 to     21:
 Box      4 Number                   4 centers from     22 to     22:
 After GenITR:
 ITRead=  0  0  0  0  0  0  0  0  0  0  0  0  0  0  0  0  0  0  0  0
 ITRead=  0  0
 MicOpt= -1 -1 -1 -1 -1 -1 -1 -1 -1 -1 -1 -1 -1 -1 -1 -1 -1 -1 -1 -1
 MicOpt= -1 -1
 ITRead=  0  0  0  0  0  0  0  0  0  0  0  0  0  0  0  0  0  0  0  0
 ITRead=  0  0
 MicOpt= -1 -1 -1 -1 -1 -1 -1 -1 -1 -1 -1 -1 -1 -1 -1 -1 -1 -1 -1 -1
 MicOpt= -1 -1
 NAtoms=     22 NQM=       22 NQMF=       0 NMMI=      0 NMMIF=      0
                NMic=       0 NMicF=      0.
                    Isotopes and Nuclear Properties:
 (Nuclear quadrupole moments (NQMom) in fm**2, nuclear magnetic moments (NMagM)
  in nuclear magnetons)

  Atom         1           2           3           4           5           6           7           8           9          10
 IAtWgt=          14          12          12          12          12          12           1           1           1           1
 AtmWgt=  14.0030740  12.0000000  12.0000000  12.0000000  12.0000000  12.0000000   1.0078250   1.0078250   1.0078250   1.0078250
 NucSpn=           2           0           0           0           0           0           1           1           1           1
 AtZEff=  -0.0000000  -0.0000000  -0.0000000  -0.0000000  -0.0000000  -0.0000000  -0.0000000  -0.0000000  -0.0000000  -0.0000000
 NQMom=    2.0440000   0.0000000   0.0000000   0.0000000   0.0000000   0.0000000   0.0000000   0.0000000   0.0000000   0.0000000
 NMagM=    0.4037610   0.0000000   0.0000000   0.0000000   0.0000000   0.0000000   2.7928460   2.7928460   2.7928460   2.7928460
 AtZNuc=   7.0000000   6.0000000   6.0000000   6.0000000   6.0000000   6.0000000   1.0000000   1.0000000   1.0000000   1.0000000

  Atom        11          12          13          14          15          16          17          18          19          20
 IAtWgt=           1          14          12          12          12          12          12           1           1           1
 AtmWgt=   1.0078250  14.0030740  12.0000000  12.0000000  12.0000000  12.0000000  12.0000000   1.0078250   1.0078250   1.0078250
 NucSpn=           1           2           0           0           0           0           0           1           1           1
 AtZEff=  -0.0000000  -0.0000000  -0.0000000  -0.0000000  -0.0000000  -0.0000000  -0.0000000  -0.0000000  -0.0000000  -0.0000000
 NQMom=    0.0000000   2.0440000   0.0000000   0.0000000   0.0000000   0.0000000   0.0000000   0.0000000   0.0000000   0.0000000
 NMagM=    2.7928460   0.4037610   0.0000000   0.0000000   0.0000000   0.0000000   0.0000000   2.7928460   2.7928460   2.7928460
 AtZNuc=   1.0000000   7.0000000   6.0000000   6.0000000   6.0000000   6.0000000   6.0000000   1.0000000   1.0000000   1.0000000

  Atom        21          22
 IAtWgt=           1           1
 AtmWgt=   1.0078250   1.0078250
 NucSpn=           1           1
 AtZEff=  -0.0000000  -0.0000000
 NQMom=    0.0000000   0.0000000
 NMagM=    2.7928460   2.7928460
 AtZNuc=   1.0000000   1.0000000
 No MM parameters found.
 Leave Link  101 at Sun Apr 18 01:40:32 2021, MaxMem=   104857600 cpu:              10.1 elap:               0.2
 (Enter /s/ls4/users/knvvv/bin/g16sse/l202.exe)
                          Input orientation:                          
 ---------------------------------------------------------------------
 Center     Atomic      Atomic             Coordinates (Angstroms)
 Number     Number       Type             X           Y           Z
 ---------------------------------------------------------------------
      1          7           0        1.398038    0.000000    0.000000
      2          6           0        0.698537    1.140130    0.000000
      3          6           0       -0.694182    1.195340    0.000000
      4          6           0       -1.406747    0.000000    0.000000
      5          6           0       -0.694182   -1.195340    0.000000
      6          6           0        0.698537   -1.140130    0.000000
      7          1           0        1.281669    2.056885    0.000000
      8          1           0       -1.199925    2.152548    0.000000
      9          1           0       -2.488547    0.000000    0.000000
     10          1           0       -1.199925   -2.152548    0.000000
     11          1           0        1.281669   -2.056885    0.000000
     12          7           0       -1.398038    0.000000    4.100000
     13          6           0       -0.698537    0.000000    5.240130
     14          6           0        0.694182    0.000000    5.295340
     15          6           0        1.406747    0.000000    4.100000
     16          6           0        0.694182    0.000000    2.904660
     17          6           0       -0.698537    0.000000    2.959870
     18          1           0       -1.281669    0.000000    6.156885
     19          1           0        1.199925    0.000000    6.252548
     20          1           0        2.488547    0.000000    4.100000
     21          1           0        1.199925    0.000000    1.947452
     22          1           0       -1.281669    0.000000    2.043115
 ---------------------------------------------------------------------
                    Distance matrix (angstroms):
                    1          2          3          4          5
     1  N    0.000000
     2  C    1.337609   0.000000
     3  C    2.409610   1.393813   0.000000
     4  C    2.804785   2.394184   1.391613   0.000000
     5  C    2.409610   2.719207   2.390680   1.391613   0.000000
     6  C    1.337609   2.280260   2.719207   2.394184   1.393813
     7  H    2.060174   1.086500   2.155515   3.385019   3.805385
     8  H    3.373852   2.151546   1.082600   2.162461   3.385872
     9  H    3.886585   3.384878   2.156057   1.081800   2.156057
    10  H    3.373852   3.800774   3.385872   2.162461   1.082600
    11  H    2.060174   3.249761   3.805385   3.385019   2.155515
    12  N    4.962665   4.743999   4.328308   4.100009   4.328308
    13  C    5.643987   5.541721   5.374739   5.287771   5.374739
    14  C    5.341913   5.416691   5.603304   5.696888   5.603304
    15  C    4.100009   4.314100   4.759490   4.972499   4.759490
    16  C    2.988723   3.120411   3.434158   3.584823   3.434158
    17  C    3.627183   3.465912   3.192129   3.043418   3.192129
    18  H    6.714765   6.567217   6.299302   6.158155   6.299302
    19  H    6.255686   6.375394   6.641599   6.774149   6.641599
    20  H    4.242548   4.616712   5.326218   5.655379   5.326218
    21  H    1.957503   2.311678   2.968004   3.253814   2.968004
    22  H    3.369740   3.065197   2.438913   2.046940   2.438913
                    6          7          8          9         10
     6  C    0.000000
     7  H    3.249761   0.000000
     8  H    3.800774   2.483437   0.000000
     9  H    3.384878   4.294800   2.508786   0.000000
    10  H    2.151546   4.886475   4.305096   2.508786   0.000000
    11  H    1.086500   4.113770   4.886475   4.294800   2.483437
    12  N    4.743999   5.312401   4.634945   4.242548   4.634945
    13  C    5.541721   5.967491   5.687162   5.537427   5.687162
    14  C    5.416691   5.711089   6.021771   6.178219   6.021771
    15  C    4.314100   4.588728   5.313963   5.655379   5.313963
    16  C    3.120411   3.607349   4.081440   4.308923   4.081440
    17  C    3.465912   4.112520   3.694006   3.459041   3.694006
    18  H    6.567217   6.979163   6.522835   6.274057   6.522835
    19  H    6.375394   6.582691   7.034707   7.259420   7.034707
    20  H    4.616712   4.743135   5.920160   6.448369   5.920160
    21  H    2.311678   2.833730   3.766339   4.171018   3.766339
    22  H    3.065197   3.869857   2.968916   2.372946   2.968916
                   11         12         13         14         15
    11  H    0.000000
    12  N    5.312401   0.000000
    13  C    5.967491   1.337609   0.000000
    14  C    5.711089   2.409610   1.393813   0.000000
    15  C    4.588728   2.804785   2.394184   1.391613   0.000000
    16  C    3.607349   2.409610   2.719207   2.390680   1.391613
    17  C    4.112520   1.337609   2.280260   2.719207   2.394184
    18  H    6.979163   2.060174   1.086500   2.155515   3.385019
    19  H    6.582691   3.373852   2.151546   1.082600   2.162461
    20  H    4.743135   3.886585   3.384878   2.156057   1.081800
    21  H    2.833730   3.373852   3.800774   3.385872   2.162461
    22  H    3.869857   2.060174   3.249761   3.805385   3.385019
                   16         17         18         19         20
    16  C    0.000000
    17  C    1.393813   0.000000
    18  H    3.805385   3.249761   0.000000
    19  H    3.385872   3.800774   2.483437   0.000000
    20  H    2.156057   3.384878   4.294800   2.508786   0.000000
    21  H    1.082600   2.151546   4.886475   4.305096   2.508786
    22  H    2.155515   1.086500   4.113770   4.886475   4.294800
                   21         22
    21  H    0.000000
    22  H    2.483437   0.000000
 Stoichiometry    C10H10N2
 Framework group  CS[SG(C6H6N2),X(C4H4)]
 Deg. of freedom    37
 Full point group                 CS      NOp   2
 Largest Abelian subgroup         CS      NOp   2
 Largest concise Abelian subgroup CS      NOp   2
                         Standard orientation:                         
 ---------------------------------------------------------------------
 Center     Atomic      Atomic             Coordinates (Angstroms)
 Number     Number       Type             X           Y           Z
 ---------------------------------------------------------------------
      1          7           0       -2.050000    1.398038   -0.000000
      2          6           0       -2.050000    0.698537    1.140130
      3          6           0       -2.050000   -0.694182    1.195340
      4          6           0       -2.050000   -1.406747   -0.000000
      5          6           0       -2.050000   -0.694182   -1.195340
      6          6           0       -2.050000    0.698537   -1.140130
      7          1           0       -2.050000    1.281669    2.056885
      8          1           0       -2.050000   -1.199925    2.152548
      9          1           0       -2.050000   -2.488547   -0.000000
     10          1           0       -2.050000   -1.199925   -2.152548
     11          1           0       -2.050000    1.281669   -2.056885
     12          7           0        2.050000   -1.398038    0.000000
     13          6           0        3.190130   -0.698537    0.000000
     14          6           0        3.245340    0.694182    0.000000
     15          6           0        2.050000    1.406747    0.000000
     16          6           0        0.854660    0.694182    0.000000
     17          6           0        0.909870   -0.698537    0.000000
     18          1           0        4.106885   -1.281669    0.000000
     19          1           0        4.202548    1.199925    0.000000
     20          1           0        2.050000    2.488547    0.000000
     21          1           0       -0.102548    1.199925   -0.000000
     22          1           0       -0.006885   -1.281669   -0.000000
 ---------------------------------------------------------------------
 Rotational constants (GHZ):           1.9661106           0.6081068           0.5484898
 Leave Link  202 at Sun Apr 18 01:40:32 2021, MaxMem=   104857600 cpu:               6.9 elap:               0.2
 (Enter /s/ls4/users/knvvv/bin/g16sse/l301.exe)
 General basis read from cards:  (5D, 7F)
 Centers:       7      8      9     10     11     18     19     20     21     22
 S 4 1.00
     Exponent=  1.9069169000D+02 Coefficients=  7.0815167000D-04
     Exponent=  2.8605532000D+01 Coefficients=  5.4678827000D-03
     Exponent=  6.5095943000D+00 Coefficients=  2.7966605000D-02
     Exponent=  1.8412455000D+00 Coefficients=  1.0764538000D-01
 S 1 1.00
     Exponent=  5.9853725000D-01 Coefficients=  1.0000000000D+00
 S 1 1.00
     Exponent=  2.1397624000D-01 Coefficients=  1.0000000000D+00
 S 1 1.00
     Exponent=  8.0316286000D-02 Coefficients=  1.0000000000D+00
 P 1 1.00
     Exponent=  2.2920000000D+00 Coefficients=  1.0000000000D+00
 P 1 1.00
     Exponent=  8.3800000000D-01 Coefficients=  1.0000000000D+00
 P 1 1.00
     Exponent=  2.9200000000D-01 Coefficients=  1.0000000000D+00
 P 1 1.00
     Exponent=  8.4063199228D-02 Coefficients=  1.0000000000D+00
 D 1 1.00
     Exponent=  2.0620000000D+00 Coefficients=  1.0000000000D+00
 D 1 1.00
     Exponent=  6.6200000000D-01 Coefficients=  1.0000000000D+00
 F 1 1.00
     Exponent=  1.3970000000D+00 Coefficients=  1.0000000000D+00
 ****
 Centers:       2      3      4      5      6     13     14     15     16     17
 S 8 1.00
     Exponent=  6.7025071029D+04 Coefficients=  3.8736308501D-05
     Exponent=  1.0039986538D+04 Coefficients=  3.0107917575D-04
     Exponent=  2.2849316911D+03 Coefficients=  1.5787918095D-03
     Exponent=  6.4714122130D+02 Coefficients=  6.6087087195D-03
     Exponent=  2.1109472335D+02 Coefficients=  2.3367123250D-02
     Exponent=  7.6177643862D+01 Coefficients=  7.0420716898D-02
     Exponent=  2.9633839163D+01 Coefficients=  1.7360344953D-01
     Exponent=  1.2187785081D+01 Coefficients=  3.2292305648D-01
 S 2 1.00
     Exponent=  5.3026006299D+01 Coefficients=  7.4897404492D-02
     Exponent=  1.5258502776D+01 Coefficients=  7.6136220983D-01
 S 1 1.00
     Exponent=  5.2403957464D+00 Coefficients=  1.0000000000D+00
 S 1 1.00
     Exponent=  2.2905022379D+00 Coefficients=  1.0000000000D+00
 S 1 1.00
     Exponent=  6.9673283006D-01 Coefficients=  1.0000000000D+00
 S 1 1.00
     Exponent=  2.7599337363D-01 Coefficients=  1.0000000000D+00
 S 1 1.00
     Exponent=  1.0739884389D-01 Coefficients=  1.0000000000D+00
 S 1 1.00
     Exponent=  4.4981404899D-02 Coefficients=  1.0000000000D+00
 P 5 1.00
     Exponent=  1.0512555082D+02 Coefficients=  8.4647553844D-04
     Exponent=  2.4884461066D+01 Coefficients=  6.6274038534D-03
     Exponent=  7.8637230826D+00 Coefficients=  3.0120390419D-02
     Exponent=  2.8407001835D+00 Coefficients=  9.9951435476D-02
     Exponent=  1.1227137335D+00 Coefficients=  2.3826299282D-01
 P 1 1.00
     Exponent=  4.6050725555D-01 Coefficients=  1.0000000000D+00
 P 1 1.00
     Exponent=  1.8937530913D-01 Coefficients=  1.0000000000D+00
 P 1 1.00
     Exponent=  7.5983791611D-02 Coefficients=  1.0000000000D+00
 D 1 1.00
     Exponent=  1.8480000000D+00 Coefficients=  1.0000000000D+00
 D 1 1.00
     Exponent=  6.4900000000D-01 Coefficients=  1.0000000000D+00
 D 1 1.00
     Exponent=  2.2800000000D-01 Coefficients=  1.0000000000D+00
 D 1 1.00
     Exponent=  7.6889830417D-02 Coefficients=  1.0000000000D+00
 F 1 1.00
     Exponent=  1.4190000000D+00 Coefficients=  1.0000000000D+00
 F 1 1.00
     Exponent=  4.8500000000D-01 Coefficients=  1.0000000000D+00
 G 1 1.00
     Exponent=  1.0110000000D+00 Coefficients=  1.0000000000D+00
 ****
 Centers:       1     12
 S 8 1.00
     Exponent=  9.0726889210D+04 Coefficients=  3.9257887368D-05
     Exponent=  1.3590528801D+04 Coefficients=  3.0513316455D-04
     Exponent=  3.0929883781D+03 Coefficients=  1.6000560446D-03
     Exponent=  8.7599876362D+02 Coefficients=  6.6982937306D-03
     Exponent=  2.8574469982D+02 Coefficients=  2.3690078765D-02
     Exponent=  1.0311913417D+02 Coefficients=  7.1455405268D-02
     Exponent=  4.0128556777D+01 Coefficients=  1.7632774876D-01
     Exponent=  1.6528095704D+01 Coefficients=  3.2677592815D-01
 S 2 1.00
     Exponent=  6.9390960983D+01 Coefficients=  8.0052094386D-02
     Exponent=  2.0428200596D+01 Coefficients=  7.8268063538D-01
 S 1 1.00
     Exponent=  7.1292587972D+00 Coefficients=  1.0000000000D+00
 S 1 1.00
     Exponent=  3.1324304893D+00 Coefficients=  1.0000000000D+00
 S 1 1.00
     Exponent=  9.8755778723D-01 Coefficients=  1.0000000000D+00
 S 1 1.00
     Exponent=  3.8765721307D-01 Coefficients=  1.0000000000D+00
 S 1 1.00
     Exponent=  1.4909883075D-01 Coefficients=  1.0000000000D+00
 S 1 1.00
     Exponent=  6.2151630318D-02 Coefficients=  1.0000000000D+00
 P 5 1.00
     Exponent=  1.5005742670D+02 Coefficients= -8.6216165986D-04
     Exponent=  3.5491599483D+01 Coefficients= -6.8571273236D-03
     Exponent=  1.1247864223D+01 Coefficients= -3.1795688855D-02
     Exponent=  4.0900305195D+00 Coefficients= -1.0537396822D-01
     Exponent=  1.6220573146D+00 Coefficients= -2.4519708041D-01
 P 1 1.00
     Exponent=  6.6442261530D-01 Coefficients=  1.0000000000D+00
 P 1 1.00
     Exponent=  2.7099770070D-01 Coefficients=  1.0000000000D+00
 P 1 1.00
     Exponent=  1.0688749984D-01 Coefficients=  1.0000000000D+00
 D 1 1.00
     Exponent=  2.8370000000D+00 Coefficients=  1.0000000000D+00
 D 1 1.00
     Exponent=  9.6800000000D-01 Coefficients=  1.0000000000D+00
 D 1 1.00
     Exponent=  3.3500000000D-01 Coefficients=  1.0000000000D+00
 D 1 1.00
     Exponent=  1.0825280010D-01 Coefficients=  1.0000000000D+00
 F 1 1.00
     Exponent=  2.0270000000D+00 Coefficients=  1.0000000000D+00
 F 1 1.00
     Exponent=  6.8500000000D-01 Coefficients=  1.0000000000D+00
 G 1 1.00
     Exponent=  1.4270000000D+00 Coefficients=  1.0000000000D+00
 ****
 Ernie: Thresh=  0.10000D-02 Tol=  0.10000D-05 Strict=F.
 There are   814 symmetry adapted cartesian basis functions of A'  symmetry.
 There are   514 symmetry adapted cartesian basis functions of A"  symmetry.
 There are   652 symmetry adapted basis functions of A'  symmetry.
 There are   434 symmetry adapted basis functions of A"  symmetry.
  1086 basis functions,  1598 primitive gaussians,  1328 cartesian basis functions
    42 alpha electrons       42 beta electrons
       nuclear repulsion energy       631.7401837690 Hartrees.
 IExCor= 4336 DFT=T Ex+Corr=M062X ExCW=0 ScaHFX=  0.540000
 ScaDFX=  1.000000  1.000000  1.000000  1.000000 ScalE2=  1.000000  1.000000
 IRadAn=      5 IRanWt=     -1 IRanGd=            0 ICorTp=0 IEmpDi=  4
 NAtoms=   22 NActive=   22 NUniq=   18 SFac= 1.49D+00 NAtFMM=   60 NAOKFM=F Big=F
 Integral buffers will be    131072 words long.
 Raffenetti 2 integral format.
 Two-electron integral symmetry is turned on.
 Leave Link  301 at Sun Apr 18 01:40:33 2021, MaxMem=   104857600 cpu:              17.7 elap:               0.5
 (Enter /s/ls4/users/knvvv/bin/g16sse/l302.exe)
 NPDir=0 NMtPBC=     1 NCelOv=     1 NCel=       1 NClECP=     1 NCelD=      1
         NCelK=      1 NCelE2=     1 NClLst=     1 CellRange=     0.0.
 One-electron integrals computed using PRISM.
 One-electron integral symmetry used in STVInt
 PrsmSu:  requested number of processors reduced to:   3 ShMem   1 Linda.
 PrsmSu:  requested number of processors reduced to:  15 ShMem   1 Linda.
 NBasis=  1086 RedAO= T EigKep=  1.03D-06  NBF=   652   434
 NBsUse=  1074 1.00D-06 EigRej=  7.87D-07 NBFU=   642   432
 Precomputing XC quadrature grid using
 IXCGrd= 4 IRadAn=           5 IRanWt=          -1 IRanGd=           0 AccXCQ= 0.00D+00.
 Generated NRdTot=       0 NPtTot=           0 NUsed=           0 NTot=          32
 NSgBfM=  1320  1320  1320  1320  1320 MxSgAt=    22 MxSgA2=    22.
 Leave Link  302 at Sun Apr 18 01:41:10 2021, MaxMem=   104857600 cpu:            1734.4 elap:              37.1
 (Enter /s/ls4/users/knvvv/bin/g16sse/l303.exe)
 DipDrv:  MaxL=1.
 Leave Link  303 at Sun Apr 18 01:41:26 2021, MaxMem=   104857600 cpu:             768.5 elap:              16.4
 (Enter /s/ls4/users/knvvv/bin/g16sse/l401.exe)
 SCF N**3 symmetry information disabled.
 ExpMin= 4.50D-02 ExpMax= 9.07D+04 ExpMxC= 8.76D+02 IAcc=3 IRadAn=         5 AccDes= 0.00D+00
 Harris functional with IExCor= 1009 and IRadAn=       5 diagonalized for initial guess.
 HarFok:  IExCor= 1009 AccDes= 0.00D+00 IRadAn=         5 IDoV= 1 UseB2=F ITyADJ=14
 ICtDFT=  3500011 ScaDFX=  1.000000  1.000000  1.000000  1.000000
 CalDSu:  requested number of processors reduced to:  33 ShMem   1 Linda.
 FoFCou: FMM=F IPFlag=           0 FMFlag=      100000 FMFlg1=           0
         NFxFlg=           0 DoJE=T BraDBF=F KetDBF=T FulRan=T
         wScrn=  0.000000 ICntrl=       500 IOpCl=  0 I1Cent=   200000004 NGrid=           0
         NMat0=    1 NMatS0=      1 NMatT0=    0 NMatD0=    1 NMtDS0=    0 NMtDT0=    0
 Petite list used in FoFCou.
 CoulSu:  requested number of processors reduced to:  13 ShMem   1 Linda.
 CoulSu:  requested number of processors reduced to:  14 ShMem   1 Linda.
 CoulSu:  requested number of processors reduced to:  20 ShMem   1 Linda.
 CoulSu:  requested number of processors reduced to:  20 ShMem   1 Linda.
 Harris En= -496.315910964946    
 JPrj=0 DoOrth=F DoCkMO=F.
 Initial guess orbital symmetries:
       Occupied  (A') (A') (A') (A') (A") (A') (A') (A') (A') (A")
                 (A') (A') (A') (A') (A') (A') (A") (A') (A') (A")
                 (A') (A') (A') (A') (A") (A') (A') (A') (A') (A")
                 (A') (A') (A") (A') (A') (A") (A") (A') (A") (A')
                 (A') (A")
       Virtual   (A') (A") (A") (A") (A') (A') (A') (A") (A") (A')
                 (A') (A') (A') (A") (A') (A') (A') (A') (A") (A')
                 (A') (A") (A") (A') (A") (A") (A') (A') (A') (A')
                 (A') (A") (A') (A') (A") (A') (A") (A') (A") (A')
                 (A') (A") (A') (A") (A') (A') (A") (A') (A') (A')
                 (A') (A") (A') (A') (A") (A') (A") (A') (A') (A')
                 (A") (A') (A") (A') (A") (A') (A') (A") (A') (A")
                 (A') (A") (A') (A') (A") (A") (A') (A') (A") (A')
                 (A') (A') (A") (A') (A') (A') (A") (A") (A') (A")
                 (A') (A") (A") (A') (A") (A') (A') (A") (A') (A')
                 (A") (A') (A") (A') (A") (A') (A') (A") (A') (A')
                 (A') (A") (A") (A') (A") (A') (A") (A') (A") (A')
                 (A") (A') (A') (A") (A") (A') (A') (A") (A') (A")
                 (A') (A") (A') (A') (A') (A") (A') (A") (A') (A')
                 (A") (A') (A') (A") (A') (A") (A') (A") (A') (A')
                 (A") (A') (A') (A") (A") (A') (A') (A") (A') (A')
                 (A') (A") (A') (A") (A') (A') (A") (A') (A") (A')
                 (A') (A") (A') (A") (A') (A') (A') (A") (A') (A")
                 (A") (A') (A") (A') (A') (A') (A') (A") (A") (A')
                 (A") (A") (A') (A') (A') (A") (A') (A') (A") (A')
                 (A') (A") (A") (A') (A") (A') (A") (A') (A") (A')
                 (A') (A') (A") (A') (A') (A') (A") (A') (A') (A")
                 (A") (A") (A') (A') (A") (A") (A') (A') (A') (A")
                 (A") (A') (A') (A") (A") (A") (A') (A') (A") (A')
                 (A') (A") (A') (A') (A") (A') (A') (A') (A") (A')
                 (A") (A') (A') (A") (A') (A') (A") (A') (A') (A')
                 (A") (A") (A') (A") (A') (A") (A') (A') (A") (A')
                 (A') (A") (A') (A') (A") (A') (A') (A') (A') (A")
                 (A') (A") (A") (A') (A') (A') (A") (A') (A') (A")
                 (A') (A') (A") (A') (A') (A') (A") (A') (A") (A')
                 (A") (A') (A') (A") (A') (A") (A') (A') (A") (A')
                 (A') (A") (A') (A") (A') (A') (A') (A") (A") (A')
                 (A') (A") (A") (A') (A") (A') (A') (A") (A") (A')
                 (A') (A") (A') (A") (A') (A') (A') (A") (A") (A')
                 (A") (A') (A") (A") (A") (A') (A') (A") (A') (A")
                 (A') (A") (A') (A") (A') (A') (A") (A') (A") (A')
                 (A") (A') (A") (A') (A') (A") (A') (A') (A") (A")
                 (A') (A') (A") (A') (A') (A") (A') (A") (A') (A")
                 (A') (A') (A") (A") (A') (A") (A') (A") (A') (A')
                 (A") (A') (A') (A') (A") (A') (A') (A") (A") (A')
                 (A") (A') (A") (A') (A") (A') (A") (A") (A') (A")
                 (A') (A") (A') (A') (A') (A') (A") (A") (A') (A")
                 (A') (A') (A") (A') (A') (A") (A') (A") (A') (A')
                 (A") (A') (A') (A") (A") (A') (A") (A') (A") (A')
                 (A") (A') (A') (A") (A') (A') (A") (A') (A") (A')
                 (A") (A') (A") (A') (A") (A') (A') (A") (A') (A")
                 (A') (A') (A') (A") (A') (A") (A') (A') (A") (A')
                 (A') (A") (A') (A") (A') (A') (A') (A") (A") (A')
                 (A") (A') (A") (A') (A") (A') (A") (A') (A') (A')
                 (A") (A') (A') (A') (A') (A') (A") (A') (A') (A")
                 (A") (A') (A') (A') (A") (A") (A') (A") (A') (A')
                 (A") (A') (A") (A') (A") (A') (A') (A") (A") (A')
                 (A') (A') (A") (A') (A") (A') (A") (A') (A") (A')
                 (A') (A") (A') (A") (A') (A") (A") (A') (A') (A')
                 (A") (A') (A') (A") (A') (A') (A') (A") (A') (A")
                 (A') (A') (A") (A') (A') (A') (A") (A') (A") (A')
                 (A") (A') (A') (A') (A') (A") (A') (A") (A') (A')
                 (A") (A') (A") (A') (A") (A') (A') (A") (A') (A')
                 (A") (A") (A") (A') (A') (A') (A') (A") (A") (A')
                 (A") (A') (A") (A') (A') (A') (A") (A") (A') (A')
                 (A') (A") (A") (A') (A') (A") (A") (A') (A') (A")
                 (A") (A') (A") (A') (A') (A') (A") (A") (A') (A")
                 (A') (A') (A') (A") (A") (A") (A") (A') (A") (A")
                 (A') (A") (A') (A") (A') (A") (A') (A") (A") (A')
                 (A") (A') (A") (A') (A") (A') (A') (A') (A") (A')
                 (A') (A") (A') (A") (A') (A") (A') (A') (A") (A")
                 (A') (A') (A") (A') (A") (A") (A") (A') (A") (A')
                 (A') (A") (A") (A') (A") (A') (A") (A') (A') (A")
                 (A') (A") (A") (A') (A") (A') (A') (A') (A') (A")
                 (A') (A') (A") (A') (A') (A") (A') (A") (A') (A")
                 (A") (A') (A") (A') (A') (A') (A") (A') (A") (A')
                 (A") (A') (A') (A") (A') (A') (A") (A') (A") (A")
                 (A') (A') (A") (A') (A') (A") (A') (A") (A') (A")
                 (A') (A") (A") (A") (A') (A") (A') (A") (A') (A')
                 (A") (A') (A') (A') (A") (A') (A") (A") (A') (A")
                 (A') (A") (A') (A') (A') (A") (A') (A") (A") (A')
                 (A') (A") (A") (A') (A') (A") (A") (A") (A') (A')
                 (A") (A') (A") (A') (A") (A') (A') (A') (A") (A')
                 (A') (A') (A') (A") (A') (A") (A") (A') (A') (A")
                 (A') (A') (A') (A') (A") (A') (A') (A") (A") (A')
                 (A") (A") (A") (A') (A") (A') (A') (A") (A') (A')
                 (A") (A') (A') (A") (A') (A") (A') (A') (A') (A")
                 (A') (A") (A') (A") (A') (A") (A') (A') (A') (A")
                 (A') (A') (A") (A') (A') (A') (A") (A") (A') (A")
                 (A') (A") (A") (A') (A') (A") (A") (A') (A") (A')
                 (A') (A') (A") (A') (A') (A") (A') (A") (A') (A")
                 (A") (A") (A') (A') (A') (A") (A") (A') (A') (A")
                 (A") (A') (A") (A') (A') (A') (A') (A") (A') (A")
                 (A') (A") (A') (A") (A') (A') (A") (A') (A") (A")
                 (A') (A') (A") (A') (A") (A') (A") (A") (A') (A')
                 (A') (A") (A') (A") (A') (A') (A") (A") (A') (A')
                 (A") (A') (A") (A") (A') (A') (A") (A") (A') (A')
                 (A") (A') (A") (A') (A') (A') (A") (A") (A') (A")
                 (A') (A") (A') (A') (A') (A') (A") (A') (A') (A")
                 (A') (A") (A") (A") (A') (A") (A') (A') (A") (A')
                 (A') (A") (A') (A') (A') (A') (A") (A') (A") (A")
                 (A") (A') (A") (A') (A') (A') (A') (A") (A') (A')
                 (A') (A") (A') (A") (A') (A') (A") (A') (A') (A')
                 (A") (A") (A') (A') (A") (A') (A') (A') (A') (A')
                 (A") (A') (A') (A') (A") (A') (A') (A') (A') (A')
                 (A') (A") (A') (A') (A") (A') (A') (A') (A') (A')
                 (A") (A') (A') (A') (A") (A') (A') (A') (A') (A')
                 (A') (A') (A") (A') (A') (A') (A") (A') (A') (A')
                 (A') (A')
 The electronic state of the initial guess is 1-A'.
 Leave Link  401 at Sun Apr 18 01:41:46 2021, MaxMem=   104857600 cpu:             839.5 elap:              19.7
 (Enter /s/ls4/users/knvvv/bin/g16sse/l502.exe)
 Integral symmetry usage will be decided dynamically.
 Closed shell SCF:
 Using DIIS extrapolation, IDIIS=  1040.
 NGot=   104857600 LenX=   101253734 LenY=    99488822
 Requested convergence on RMS density matrix=1.00D-08 within 128 cycles.
 Requested convergence on MAX density matrix=1.00D-06.
 Requested convergence on             energy=1.00D-06.
 No special actions if energy rises.
 Fock matrices will be formed incrementally for  20 cycles.

 Cycle   1  Pass 1  IDiag  1:
 FoFJK:  IHMeth= 1 ICntrl=       0 DoSepK=F KAlg= 0 I1Cent=           0 FoldK=F
 IRaf= 870000000 NMat=       1 IRICut=       1 DoRegI=T DoRafI=F ISym2E= 1 IDoP0=0 IntGTp=1.
 FoFCou: FMM=F IPFlag=           0 FMFlag=      100000 FMFlg1=           0
         NFxFlg=           0 DoJE=F BraDBF=F KetDBF=F FulRan=T
         wScrn=  0.000000 ICntrl=         0 IOpCl=  0 I1Cent=           0 NGrid=           0
         NMat0=    1 NMatS0=      1 NMatT0=    0 NMatD0=    1 NMtDS0=    0 NMtDT0=    0
 Petite list used in FoFCou.
 CoulSu:  requested number of processors reduced to:  15 ShMem   1 Linda.
 CalDSu:  requested number of processors reduced to:  33 ShMem   1 Linda.
 E= -496.290521677195    
 DIIS: error= 1.74D-02 at cycle   1 NSaved=   1.
 NSaved= 1 IEnMin= 1 EnMin= -496.290521677195     IErMin= 1 ErrMin= 1.74D-02
 ErrMax= 1.74D-02  0.00D+00 EMaxC= 1.00D-01 BMatC= 5.08D-01 BMatP= 5.08D-01
 IDIUse=3 WtCom= 8.26D-01 WtEn= 1.74D-01
 Coeff-Com:  0.100D+01
 Coeff-En:   0.100D+01
 Coeff:      0.100D+01
 Gap=     0.281 Goal=   None    Shift=    0.000
 GapD=    0.281 DampG=1.000 DampE=0.500 DampFc=0.5000 IDamp=-1.
 Damping current iteration by 5.00D-01
 RMSDP=2.46D-03 MaxDP=1.96D-01              OVMax= 1.42D-01

 Cycle   2  Pass 1  IDiag  1:
 RMSU=  1.10D-03    CP:  8.52D-01
 CoulSu:  requested number of processors reduced to:  15 ShMem   1 Linda.
 CalDSu:  requested number of processors reduced to:  33 ShMem   1 Linda.
 E= -496.429315359055     Delta-E=       -0.138793681860 Rises=F Damp=T
 DIIS: error= 8.29D-03 at cycle   2 NSaved=   2.
 NSaved= 2 IEnMin= 2 EnMin= -496.429315359055     IErMin= 2 ErrMin= 8.29D-03
 ErrMax= 8.29D-03  0.00D+00 EMaxC= 1.00D-01 BMatC= 7.61D-02 BMatP= 5.08D-01
 IDIUse=3 WtCom= 9.17D-01 WtEn= 8.29D-02
 Coeff-Com: -0.369D+00 0.137D+01
 Coeff-En:   0.000D+00 0.100D+01
 Coeff:     -0.338D+00 0.134D+01
 Gap=     0.331 Goal=   None    Shift=    0.000
 RMSDP=1.73D-03 MaxDP=1.85D-01 DE=-1.39D-01 OVMax= 8.86D-02

 Cycle   3  Pass 1  IDiag  1:
 RMSU=  1.41D-03    CP:  6.49D-01  1.61D+00
 CoulSu:  requested number of processors reduced to:  15 ShMem   1 Linda.
 CalDSu:  requested number of processors reduced to:  33 ShMem   1 Linda.
 E= -496.544283205595     Delta-E=       -0.114967846540 Rises=F Damp=F
 DIIS: error= 5.30D-03 at cycle   3 NSaved=   3.
 NSaved= 3 IEnMin= 3 EnMin= -496.544283205595     IErMin= 3 ErrMin= 5.30D-03
 ErrMax= 5.30D-03  0.00D+00 EMaxC= 1.00D-01 BMatC= 1.30D-02 BMatP= 7.61D-02
 IDIUse=3 WtCom= 9.47D-01 WtEn= 5.30D-02
 Coeff-Com: -0.206D+00 0.490D+00 0.716D+00
 Coeff-En:   0.000D+00 0.000D+00 0.100D+01
 Coeff:     -0.195D+00 0.464D+00 0.731D+00
 Gap=     0.284 Goal=   None    Shift=    0.000
 RMSDP=2.36D-04 MaxDP=3.77D-02 DE=-1.15D-01 OVMax= 3.59D-02

 Cycle   4  Pass 1  IDiag  1:
 RMSU=  1.86D-04    CP:  6.39D-01  1.61D+00  9.01D-01
 CoulSu:  requested number of processors reduced to:  15 ShMem   1 Linda.
 CalDSu:  requested number of processors reduced to:  33 ShMem   1 Linda.
 E= -496.555610147440     Delta-E=       -0.011326941845 Rises=F Damp=F
 DIIS: error= 1.51D-03 at cycle   4 NSaved=   4.
 NSaved= 4 IEnMin= 4 EnMin= -496.555610147440     IErMin= 4 ErrMin= 1.51D-03
 ErrMax= 1.51D-03  0.00D+00 EMaxC= 1.00D-01 BMatC= 1.27D-03 BMatP= 1.30D-02
 IDIUse=3 WtCom= 9.85D-01 WtEn= 1.51D-02
 Coeff-Com: -0.800D-01 0.178D+00 0.343D+00 0.560D+00
 Coeff-En:   0.000D+00 0.000D+00 0.000D+00 0.100D+01
 Coeff:     -0.788D-01 0.175D+00 0.337D+00 0.566D+00
 Gap=     0.283 Goal=   None    Shift=    0.000
 RMSDP=7.22D-05 MaxDP=9.95D-03 DE=-1.13D-02 OVMax= 1.35D-02

 Cycle   5  Pass 1  IDiag  1:
 RMSU=  6.04D-05    CP:  6.39D-01  1.61D+00  8.75D-01  9.21D-01
 CoulSu:  requested number of processors reduced to:  15 ShMem   1 Linda.
 CalDSu:  requested number of processors reduced to:  33 ShMem   1 Linda.
 E= -496.556728133978     Delta-E=       -0.001117986537 Rises=F Damp=F
 DIIS: error= 4.52D-04 at cycle   5 NSaved=   5.
 NSaved= 5 IEnMin= 5 EnMin= -496.556728133978     IErMin= 5 ErrMin= 4.52D-04
 ErrMax= 4.52D-04  0.00D+00 EMaxC= 1.00D-01 BMatC= 1.40D-04 BMatP= 1.27D-03
 IDIUse=3 WtCom= 9.95D-01 WtEn= 4.52D-03
 Coeff-Com: -0.201D-01 0.427D-01 0.102D+00 0.294D+00 0.581D+00
 Coeff-En:   0.000D+00 0.000D+00 0.000D+00 0.344D-01 0.966D+00
 Coeff:     -0.200D-01 0.425D-01 0.102D+00 0.293D+00 0.583D+00
 Gap=     0.283 Goal=   None    Shift=    0.000
 RMSDP=3.37D-05 MaxDP=3.89D-03 DE=-1.12D-03 OVMax= 3.10D-03

 Cycle   6  Pass 1  IDiag  1:
 RMSU=  2.55D-05    CP:  6.39D-01  1.60D+00  8.64D-01  9.57D-01  1.19D+00
 CoulSu:  requested number of processors reduced to:  15 ShMem   1 Linda.
 CalDSu:  requested number of processors reduced to:  33 ShMem   1 Linda.
 E= -496.556858929077     Delta-E=       -0.000130795099 Rises=F Damp=F
 DIIS: error= 5.25D-05 at cycle   6 NSaved=   6.
 NSaved= 6 IEnMin= 6 EnMin= -496.556858929077     IErMin= 6 ErrMin= 5.25D-05
 ErrMax= 5.25D-05  0.00D+00 EMaxC= 1.00D-01 BMatC= 3.12D-06 BMatP= 1.40D-04
 IDIUse=1 WtCom= 1.00D+00 WtEn= 0.00D+00
 Coeff-Com: -0.203D-02 0.432D-02 0.139D-01 0.594D-01 0.180D+00 0.744D+00
 Coeff:     -0.203D-02 0.432D-02 0.139D-01 0.594D-01 0.180D+00 0.744D+00
 Gap=     0.283 Goal=   None    Shift=    0.000
 RMSDP=8.96D-06 MaxDP=1.13D-03 DE=-1.31D-04 OVMax= 5.96D-04

 Cycle   7  Pass 1  IDiag  1:
 RMSU=  4.02D-06    CP:  6.39D-01  1.60D+00  8.61D-01  9.69D-01  1.28D+00
                    CP:  1.15D+00
 CoulSu:  requested number of processors reduced to:  15 ShMem   1 Linda.
 CalDSu:  requested number of processors reduced to:  33 ShMem   1 Linda.
 E= -496.556860940614     Delta-E=       -0.000002011537 Rises=F Damp=F
 DIIS: error= 2.95D-05 at cycle   7 NSaved=   7.
 NSaved= 7 IEnMin= 7 EnMin= -496.556860940614     IErMin= 7 ErrMin= 2.95D-05
 ErrMax= 2.95D-05  0.00D+00 EMaxC= 1.00D-01 BMatC= 9.09D-07 BMatP= 3.12D-06
 IDIUse=1 WtCom= 1.00D+00 WtEn= 0.00D+00
 Coeff-Com:  0.249D-02-0.527D-02-0.103D-01-0.198D-01-0.451D-02 0.377D+00
 Coeff-Com:  0.660D+00
 Coeff:      0.249D-02-0.527D-02-0.103D-01-0.198D-01-0.451D-02 0.377D+00
 Coeff:      0.660D+00
 Gap=     0.283 Goal=   None    Shift=    0.000
 RMSDP=3.19D-06 MaxDP=3.37D-04 DE=-2.01D-06 OVMax= 1.88D-04

 Cycle   8  Pass 1  IDiag  1:
 RMSU=  1.48D-06    CP:  6.39D-01  1.60D+00  8.61D-01  9.76D-01  1.30D+00
                    CP:  1.21D+00  1.25D+00
 CoulSu:  requested number of processors reduced to:  15 ShMem   1 Linda.
 CalDSu:  requested number of processors reduced to:  33 ShMem   1 Linda.
 E= -496.556861677605     Delta-E=       -0.000000736990 Rises=F Damp=F
 DIIS: error= 7.25D-06 at cycle   8 NSaved=   8.
 NSaved= 8 IEnMin= 8 EnMin= -496.556861677605     IErMin= 8 ErrMin= 7.25D-06
 ErrMax= 7.25D-06  0.00D+00 EMaxC= 1.00D-01 BMatC= 2.72D-08 BMatP= 9.09D-07
 IDIUse=1 WtCom= 1.00D+00 WtEn= 0.00D+00
 Coeff-Com:  0.860D-03-0.185D-02-0.380D-02-0.861D-02-0.793D-02 0.108D+00
 Coeff-Com:  0.221D+00 0.693D+00
 Coeff:      0.860D-03-0.185D-02-0.380D-02-0.861D-02-0.793D-02 0.108D+00
 Coeff:      0.221D+00 0.693D+00
 Gap=     0.283 Goal=   None    Shift=    0.000
 RMSDP=9.59D-07 MaxDP=1.60D-04 DE=-7.37D-07 OVMax= 6.11D-05

 Cycle   9  Pass 1  IDiag  1:
 RMSU=  5.66D-07    CP:  6.39D-01  1.60D+00  8.61D-01  9.75D-01  1.29D+00
                    CP:  1.20D+00  1.31D+00  1.09D+00
 CoulSu:  requested number of processors reduced to:  15 ShMem   1 Linda.
 CalDSu:  requested number of processors reduced to:  33 ShMem   1 Linda.
 E= -496.556861695367     Delta-E=       -0.000000017762 Rises=F Damp=F
 DIIS: error= 4.50D-06 at cycle   9 NSaved=   9.
 NSaved= 9 IEnMin= 9 EnMin= -496.556861695367     IErMin= 9 ErrMin= 4.50D-06
 ErrMax= 4.50D-06  0.00D+00 EMaxC= 1.00D-01 BMatC= 1.00D-08 BMatP= 2.72D-08
 IDIUse=1 WtCom= 1.00D+00 WtEn= 0.00D+00
 Coeff-Com: -0.895D-04 0.164D-03 0.244D-03-0.235D-03-0.274D-02-0.138D-01
 Coeff-Com: -0.205D-01 0.376D+00 0.661D+00
 Coeff:     -0.895D-04 0.164D-03 0.244D-03-0.235D-03-0.274D-02-0.138D-01
 Coeff:     -0.205D-01 0.376D+00 0.661D+00
 Gap=     0.283 Goal=   None    Shift=    0.000
 RMSDP=5.83D-07 MaxDP=8.97D-05 DE=-1.78D-08 OVMax= 3.90D-05

 Cycle  10  Pass 1  IDiag  1:
 RMSU=  2.21D-07    CP:  6.39D-01  1.60D+00  8.61D-01  9.75D-01  1.29D+00
                    CP:  1.19D+00  1.32D+00  1.19D+00  1.40D+00
 CoulSu:  requested number of processors reduced to:  15 ShMem   1 Linda.
 CalDSu:  requested number of processors reduced to:  33 ShMem   1 Linda.
 E= -496.556861705653     Delta-E=       -0.000000010286 Rises=F Damp=F
 DIIS: error= 1.03D-06 at cycle  10 NSaved=  10.
 NSaved=10 IEnMin=10 EnMin= -496.556861705653     IErMin=10 ErrMin= 1.03D-06
 ErrMax= 1.03D-06  0.00D+00 EMaxC= 1.00D-01 BMatC= 5.45D-10 BMatP= 1.00D-08
 IDIUse=1 WtCom= 1.00D+00 WtEn= 0.00D+00
 Coeff-Com: -0.679D-04 0.137D-03 0.249D-03 0.213D-03-0.779D-03-0.913D-02
 Coeff-Com: -0.220D-01 0.814D-01 0.249D+00 0.701D+00
 Coeff:     -0.679D-04 0.137D-03 0.249D-03 0.213D-03-0.779D-03-0.913D-02
 Coeff:     -0.220D-01 0.814D-01 0.249D+00 0.701D+00
 Gap=     0.283 Goal=   None    Shift=    0.000
 RMSDP=7.48D-08 MaxDP=1.31D-05 DE=-1.03D-08 OVMax= 9.40D-06

 Cycle  11  Pass 1  IDiag  1:
 RMSU=  4.27D-08    CP:  6.39D-01  1.60D+00  8.61D-01  9.75D-01  1.29D+00
                    CP:  1.19D+00  1.33D+00  1.20D+00  1.49D+00  1.07D+00
 CoulSu:  requested number of processors reduced to:  15 ShMem   1 Linda.
 CalDSu:  requested number of processors reduced to:  33 ShMem   1 Linda.
 E= -496.556861706149     Delta-E=       -0.000000000496 Rises=F Damp=F
 DIIS: error= 4.43D-07 at cycle  11 NSaved=  11.
 NSaved=11 IEnMin=11 EnMin= -496.556861706149     IErMin=11 ErrMin= 4.43D-07
 ErrMax= 4.43D-07  0.00D+00 EMaxC= 1.00D-01 BMatC= 1.27D-10 BMatP= 5.45D-10
 IDIUse=1 WtCom= 1.00D+00 WtEn= 0.00D+00
 Coeff-Com: -0.442D-05 0.119D-04 0.276D-04 0.724D-05-0.497D-04-0.561D-03
 Coeff-Com: -0.715D-02-0.383D-01-0.276D-02 0.344D+00 0.705D+00
 Coeff:     -0.442D-05 0.119D-04 0.276D-04 0.724D-05-0.497D-04-0.561D-03
 Coeff:     -0.715D-02-0.383D-01-0.276D-02 0.344D+00 0.705D+00
 Gap=     0.283 Goal=   None    Shift=    0.000
 RMSDP=3.76D-08 MaxDP=4.54D-06 DE=-4.96D-10 OVMax= 4.17D-06

 Cycle  12  Pass 1  IDiag  1:
 RMSU=  1.85D-08    CP:  6.39D-01  1.60D+00  8.61D-01  9.75D-01  1.29D+00
                    CP:  1.19D+00  1.33D+00  1.21D+00  1.52D+00  1.15D+00
                    CP:  1.34D+00
 CoulSu:  requested number of processors reduced to:  15 ShMem   1 Linda.
 CalDSu:  requested number of processors reduced to:  33 ShMem   1 Linda.
 E= -496.556861706319     Delta-E=       -0.000000000170 Rises=F Damp=F
 DIIS: error= 1.23D-07 at cycle  12 NSaved=  12.
 NSaved=12 IEnMin=12 EnMin= -496.556861706319     IErMin=12 ErrMin= 1.23D-07
 ErrMax= 1.23D-07  0.00D+00 EMaxC= 1.00D-01 BMatC= 8.15D-12 BMatP= 1.27D-10
 IDIUse=1 WtCom= 1.00D+00 WtEn= 0.00D+00
 Coeff-Com:  0.280D-05-0.453D-05-0.292D-05-0.820D-05 0.375D-04 0.714D-03
 Coeff-Com: -0.128D-02-0.183D-01-0.155D-01 0.436D-01 0.169D+00 0.822D+00
 Coeff:      0.280D-05-0.453D-05-0.292D-05-0.820D-05 0.375D-04 0.714D-03
 Coeff:     -0.128D-02-0.183D-01-0.155D-01 0.436D-01 0.169D+00 0.822D+00
 Gap=     0.283 Goal=   None    Shift=    0.000
 RMSDP=1.15D-08 MaxDP=1.80D-06 DE=-1.70D-10 OVMax= 1.66D-06

 Cycle  13  Pass 1  IDiag  1:
 RMSU=  6.81D-09    CP:  6.39D-01  1.60D+00  8.61D-01  9.75D-01  1.29D+00
                    CP:  1.19D+00  1.33D+00  1.21D+00  1.52D+00  1.17D+00
                    CP:  1.45D+00  1.20D+00
 CoulSu:  requested number of processors reduced to:  15 ShMem   1 Linda.
 CalDSu:  requested number of processors reduced to:  33 ShMem   1 Linda.
 E= -496.556861706299     Delta-E=        0.000000000020 Rises=F Damp=F
 DIIS: error= 1.05D-07 at cycle  13 NSaved=  13.
 NSaved=13 IEnMin=12 EnMin= -496.556861706319     IErMin=13 ErrMin= 1.05D-07
 ErrMax= 1.05D-07  0.00D+00 EMaxC= 1.00D-01 BMatC= 2.99D-12 BMatP= 8.15D-12
 IDIUse=1 WtCom= 1.00D+00 WtEn= 0.00D+00
 Coeff-Com:  0.195D-05-0.397D-05-0.448D-05-0.293D-05 0.284D-04 0.550D-03
 Coeff-Com:  0.645D-03-0.884D-03-0.509D-02-0.530D-01-0.828D-01 0.458D+00
 Coeff-Com:  0.682D+00
 Coeff:      0.195D-05-0.397D-05-0.448D-05-0.293D-05 0.284D-04 0.550D-03
 Coeff:      0.645D-03-0.884D-03-0.509D-02-0.530D-01-0.828D-01 0.458D+00
 Coeff:      0.682D+00
 Gap=     0.283 Goal=   None    Shift=    0.000
 RMSDP=5.18D-09 MaxDP=7.36D-07 DE= 1.96D-11 OVMax= 8.49D-07

 SCF Done:  E(RM062X) =  -496.556861706     A.U. after   13 cycles
            NFock= 13  Conv=0.52D-08     -V/T= 2.0042
 KE= 4.944818039442D+02 PE=-2.416775263079D+03 EE= 7.939964136590D+02
 Leave Link  502 at Sun Apr 18 02:22:46 2021, MaxMem=   104857600 cpu:           56911.0 elap:            2459.4
 (Enter /s/ls4/users/knvvv/bin/g16sse/l601.exe)
 Copying SCF densities to generalized density rwf, IOpCl= 0 IROHF=0.

 **********************************************************************

            Population analysis using the SCF density.

 **********************************************************************

 Orbital symmetries:
       Occupied  (A') (A') (A") (A') (A') (A') (A") (A') (A') (A')
                 (A') (A') (A') (A') (A') (A') (A") (A') (A") (A')
                 (A') (A') (A') (A') (A") (A') (A') (A') (A') (A")
                 (A') (A") (A') (A') (A") (A') (A') (A") (A') (A")
                 (A') (A")
       Virtual   (A') (A") (A') (A") (A') (A") (A') (A") (A') (A')
                 (A") (A') (A') (A') (A') (A") (A') (A') (A") (A")
                 (A') (A') (A") (A') (A") (A') (A') (A') (A") (A')
                 (A") (A") (A') (A') (A') (A") (A") (A') (A') (A")
                 (A') (A") (A') (A') (A") (A') (A') (A') (A') (A")
                 (A') (A") (A') (A') (A') (A") (A') (A") (A") (A')
                 (A') (A") (A") (A') (A') (A') (A") (A") (A') (A')
                 (A") (A') (A') (A") (A') (A") (A') (A") (A') (A')
                 (A') (A") (A') (A') (A") (A') (A") (A') (A") (A')
                 (A") (A') (A') (A") (A') (A') (A") (A') (A") (A')
                 (A') (A') (A") (A') (A") (A") (A') (A') (A') (A')
                 (A") (A") (A') (A") (A') (A") (A') (A") (A') (A')
                 (A") (A') (A") (A") (A') (A") (A') (A") (A') (A')
                 (A") (A') (A") (A') (A') (A') (A") (A') (A') (A')
                 (A") (A') (A") (A') (A') (A") (A") (A') (A') (A')
                 (A") (A') (A') (A") (A") (A') (A") (A') (A') (A")
                 (A') (A') (A') (A") (A') (A') (A') (A") (A') (A")
                 (A") (A") (A') (A') (A') (A') (A') (A") (A") (A')
                 (A") (A') (A') (A") (A') (A') (A') (A") (A') (A")
                 (A") (A') (A") (A') (A') (A') (A') (A") (A') (A")
                 (A") (A') (A") (A') (A") (A') (A") (A') (A') (A")
                 (A') (A') (A") (A') (A') (A') (A") (A') (A') (A")
                 (A") (A") (A') (A') (A") (A") (A') (A") (A') (A')
                 (A") (A') (A') (A") (A") (A') (A") (A') (A') (A')
                 (A") (A') (A") (A') (A") (A') (A') (A") (A') (A')
                 (A') (A') (A") (A') (A") (A') (A") (A') (A') (A")
                 (A') (A') (A") (A') (A") (A") (A') (A') (A') (A')
                 (A") (A") (A') (A") (A') (A') (A') (A') (A") (A')
                 (A') (A") (A') (A') (A") (A") (A') (A') (A') (A')
                 (A") (A') (A") (A') (A') (A') (A") (A') (A') (A')
                 (A") (A") (A') (A') (A") (A") (A') (A') (A') (A")
                 (A') (A") (A') (A') (A") (A') (A') (A") (A') (A")
                 (A") (A') (A") (A') (A') (A") (A') (A") (A") (A')
                 (A') (A') (A") (A') (A') (A") (A') (A") (A") (A')
                 (A') (A") (A") (A') (A") (A") (A') (A") (A') (A")
                 (A") (A') (A') (A') (A") (A') (A') (A") (A") (A')
                 (A") (A') (A") (A') (A") (A') (A') (A') (A") (A")
                 (A') (A') (A") (A') (A') (A") (A') (A") (A') (A")
                 (A') (A") (A') (A") (A') (A") (A') (A") (A') (A')
                 (A") (A') (A') (A') (A") (A') (A") (A') (A") (A')
                 (A") (A') (A") (A') (A") (A") (A') (A") (A') (A')
                 (A") (A') (A") (A') (A') (A') (A") (A') (A") (A")
                 (A') (A') (A") (A') (A') (A") (A") (A') (A') (A')
                 (A') (A") (A') (A") (A') (A") (A") (A') (A') (A")
                 (A") (A') (A') (A") (A') (A') (A') (A") (A") (A')
                 (A") (A") (A') (A') (A') (A") (A') (A') (A") (A")
                 (A') (A') (A') (A") (A') (A") (A') (A') (A") (A')
                 (A') (A') (A") (A") (A') (A') (A") (A') (A') (A")
                 (A") (A') (A') (A") (A') (A") (A") (A') (A') (A")
                 (A') (A') (A') (A') (A') (A') (A') (A") (A') (A")
                 (A') (A') (A") (A') (A") (A') (A") (A') (A") (A')
                 (A') (A") (A') (A") (A") (A') (A') (A") (A") (A')
                 (A') (A") (A') (A') (A") (A') (A") (A') (A") (A')
                 (A') (A") (A') (A") (A') (A") (A") (A') (A') (A')
                 (A") (A') (A') (A") (A') (A') (A") (A') (A') (A")
                 (A') (A") (A') (A') (A') (A') (A") (A') (A') (A")
                 (A') (A") (A') (A') (A") (A') (A") (A') (A') (A")
                 (A") (A') (A') (A') (A") (A') (A') (A') (A") (A")
                 (A') (A") (A") (A') (A') (A') (A") (A") (A') (A")
                 (A') (A") (A') (A') (A') (A') (A") (A") (A') (A")
                 (A') (A') (A") (A') (A") (A") (A') (A') (A') (A")
                 (A") (A') (A") (A') (A') (A") (A') (A") (A') (A")
                 (A') (A') (A") (A') (A") (A") (A") (A") (A') (A")
                 (A") (A') (A") (A') (A') (A") (A') (A") (A") (A')
                 (A") (A') (A') (A") (A') (A") (A') (A") (A') (A')
                 (A") (A') (A') (A") (A') (A") (A') (A") (A') (A")
                 (A') (A") (A') (A") (A") (A') (A") (A") (A') (A")
                 (A") (A') (A") (A') (A') (A") (A') (A") (A') (A')
                 (A") (A') (A") (A') (A') (A") (A') (A') (A") (A')
                 (A") (A') (A') (A') (A") (A') (A') (A") (A') (A")
                 (A") (A') (A") (A') (A') (A') (A") (A') (A') (A")
                 (A") (A') (A') (A") (A') (A") (A') (A') (A") (A')
                 (A") (A') (A") (A') (A') (A") (A") (A') (A') (A")
                 (A") (A') (A") (A') (A") (A") (A') (A') (A') (A")
                 (A") (A') (A') (A') (A") (A") (A') (A') (A") (A")
                 (A') (A") (A') (A') (A') (A") (A') (A") (A') (A")
                 (A') (A") (A") (A') (A") (A') (A") (A") (A") (A')
                 (A') (A') (A') (A") (A") (A') (A') (A') (A") (A')
                 (A') (A") (A") (A') (A") (A') (A') (A') (A") (A')
                 (A") (A') (A') (A') (A') (A") (A") (A") (A') (A')
                 (A") (A') (A") (A') (A") (A') (A') (A") (A') (A")
                 (A') (A") (A') (A') (A') (A") (A') (A') (A") (A")
                 (A") (A') (A') (A") (A') (A') (A') (A') (A') (A')
                 (A") (A") (A") (A") (A') (A') (A") (A') (A") (A')
                 (A') (A") (A') (A") (A') (A") (A') (A") (A') (A')
                 (A') (A") (A') (A') (A') (A") (A') (A") (A') (A")
                 (A') (A") (A") (A') (A") (A') (A") (A') (A") (A')
                 (A") (A') (A') (A') (A") (A") (A') (A") (A') (A")
                 (A') (A") (A') (A') (A') (A') (A") (A') (A") (A")
                 (A') (A") (A') (A') (A") (A') (A") (A') (A") (A')
                 (A") (A') (A") (A") (A') (A') (A") (A') (A') (A')
                 (A") (A') (A") (A") (A') (A") (A') (A") (A') (A')
                 (A") (A') (A") (A') (A') (A") (A') (A') (A") (A")
                 (A') (A") (A') (A') (A') (A') (A") (A') (A") (A")
                 (A") (A") (A') (A") (A') (A') (A') (A") (A') (A")
                 (A') (A') (A') (A') (A') (A") (A') (A") (A") (A')
                 (A') (A") (A') (A") (A') (A') (A') (A") (A') (A")
                 (A') (A') (A') (A") (A') (A') (A") (A') (A') (A')
                 (A') (A") (A") (A') (A") (A') (A') (A') (A') (A')
                 (A") (A') (A') (A') (A") (A') (A') (A') (A') (A')
                 (A") (A') (A') (A') (A") (A') (A') (A') (A') (A')
                 (A") (A') (A') (A') (A") (A') (A') (A') (A') (A')
                 (A') (A') (A") (A') (A') (A') (A") (A') (A') (A')
                 (A') (A')
 The electronic state is 1-A'.
 Alpha  occ. eigenvalues --  -14.76188 -14.74304 -10.59255 -10.59254 -10.57783
 Alpha  occ. eigenvalues --  -10.57248 -10.56679 -10.56676 -10.56651 -10.55687
 Alpha  occ. eigenvalues --  -10.54794 -10.53859  -1.06857  -1.04407  -0.92181
 Alpha  occ. eigenvalues --   -0.89733  -0.87289  -0.85145  -0.72838  -0.72786
 Alpha  occ. eigenvalues --   -0.70712  -0.70674  -0.62130  -0.60388  -0.56277
 Alpha  occ. eigenvalues --   -0.55533  -0.54294  -0.54095  -0.51282  -0.50831
 Alpha  occ. eigenvalues --   -0.48663  -0.46700  -0.46658  -0.45336  -0.43687
 Alpha  occ. eigenvalues --   -0.42669  -0.34577  -0.34277  -0.34023  -0.33834
 Alpha  occ. eigenvalues --   -0.31760  -0.30393
 Alpha virt. eigenvalues --   -0.02076  -0.01152   0.00515   0.00739   0.01814
 Alpha virt. eigenvalues --    0.02260   0.02585   0.02778   0.03868   0.04221
 Alpha virt. eigenvalues --    0.04719   0.05078   0.06790   0.07503   0.08310
 Alpha virt. eigenvalues --    0.09993   0.10081   0.11407   0.12065   0.12476
 Alpha virt. eigenvalues --    0.12780   0.14118   0.14293   0.15120   0.15183
 Alpha virt. eigenvalues --    0.16009   0.16576   0.16860   0.17259   0.17393
 Alpha virt. eigenvalues --    0.17789   0.17878   0.17928   0.18796   0.19481
 Alpha virt. eigenvalues --    0.19574   0.19940   0.19962   0.20733   0.20745
 Alpha virt. eigenvalues --    0.21069   0.21199   0.21487   0.22366   0.22772
 Alpha virt. eigenvalues --    0.23041   0.23541   0.23895   0.24247   0.24650
 Alpha virt. eigenvalues --    0.25056   0.25278   0.25813   0.25977   0.26630
 Alpha virt. eigenvalues --    0.27743   0.27807   0.27999   0.28275   0.28540
 Alpha virt. eigenvalues --    0.29165   0.29420   0.29992   0.30765   0.31414
 Alpha virt. eigenvalues --    0.31797   0.31838   0.32192   0.32284   0.32965
 Alpha virt. eigenvalues --    0.33291   0.33404   0.33963   0.34188   0.34644
 Alpha virt. eigenvalues --    0.35250   0.35428   0.36027   0.36074   0.36232
 Alpha virt. eigenvalues --    0.36717   0.36779   0.37440   0.37757   0.38147
 Alpha virt. eigenvalues --    0.39033   0.39473   0.39605   0.40202   0.40297
 Alpha virt. eigenvalues --    0.40913   0.40959   0.41239   0.41484   0.41759
 Alpha virt. eigenvalues --    0.42328   0.43034   0.43242   0.43379   0.43456
 Alpha virt. eigenvalues --    0.44016   0.44699   0.45168   0.45664   0.46041
 Alpha virt. eigenvalues --    0.46457   0.46737   0.46864   0.47006   0.48024
 Alpha virt. eigenvalues --    0.48101   0.48946   0.48998   0.49196   0.49656
 Alpha virt. eigenvalues --    0.50128   0.50443   0.51199   0.51838   0.52428
 Alpha virt. eigenvalues --    0.52430   0.52896   0.52990   0.53212   0.53487
 Alpha virt. eigenvalues --    0.54488   0.54760   0.55100   0.55393   0.55742
 Alpha virt. eigenvalues --    0.56322   0.56658   0.57366   0.57443   0.58371
 Alpha virt. eigenvalues --    0.58981   0.59097   0.59579   0.60239   0.60564
 Alpha virt. eigenvalues --    0.60800   0.60881   0.62432   0.62524   0.62673
 Alpha virt. eigenvalues --    0.63518   0.64081   0.64106   0.64370   0.65259
 Alpha virt. eigenvalues --    0.65719   0.66368   0.66970   0.67239   0.67540
 Alpha virt. eigenvalues --    0.68191   0.68533   0.68926   0.69940   0.70293
 Alpha virt. eigenvalues --    0.71747   0.72687   0.73041   0.73740   0.74228
 Alpha virt. eigenvalues --    0.74355   0.75422   0.76413   0.77031   0.77714
 Alpha virt. eigenvalues --    0.77960   0.78475   0.78738   0.79199   0.80317
 Alpha virt. eigenvalues --    0.80352   0.81746   0.82239   0.82888   0.83380
 Alpha virt. eigenvalues --    0.84700   0.85351   0.86019   0.86973   0.87132
 Alpha virt. eigenvalues --    0.87642   0.89235   0.89444   0.91241   0.91746
 Alpha virt. eigenvalues --    0.91868   0.92114   0.92317   0.93360   0.94240
 Alpha virt. eigenvalues --    0.95207   0.95700   0.95707   0.96704   0.97298
 Alpha virt. eigenvalues --    0.97605   0.98148   0.99452   1.00341   1.00681
 Alpha virt. eigenvalues --    1.01163   1.01809   1.02019   1.02514   1.02680
 Alpha virt. eigenvalues --    1.04640   1.04746   1.05463   1.06257   1.06328
 Alpha virt. eigenvalues --    1.08167   1.08213   1.08745   1.09602   1.09891
 Alpha virt. eigenvalues --    1.10593   1.11382   1.12435   1.13596   1.13664
 Alpha virt. eigenvalues --    1.14141   1.14334   1.14565   1.15066   1.15971
 Alpha virt. eigenvalues --    1.16374   1.16782   1.17400   1.17839   1.18365
 Alpha virt. eigenvalues --    1.19818   1.20334   1.20390   1.21305   1.21770
 Alpha virt. eigenvalues --    1.21927   1.23763   1.23902   1.24132   1.25619
 Alpha virt. eigenvalues --    1.26275   1.26775   1.26969   1.28297   1.28767
 Alpha virt. eigenvalues --    1.29833   1.30298   1.30478   1.31103   1.31258
 Alpha virt. eigenvalues --    1.32502   1.32846   1.33478   1.34771   1.36549
 Alpha virt. eigenvalues --    1.36721   1.38303   1.39445   1.40698   1.40867
 Alpha virt. eigenvalues --    1.41718   1.42193   1.43567   1.44421   1.45264
 Alpha virt. eigenvalues --    1.45497   1.46472   1.46509   1.48569   1.49182
 Alpha virt. eigenvalues --    1.50140   1.50985   1.52227   1.52279   1.53959
 Alpha virt. eigenvalues --    1.57273   1.57955   1.58713   1.59671   1.59957
 Alpha virt. eigenvalues --    1.61619   1.62092   1.63377   1.65080   1.66627
 Alpha virt. eigenvalues --    1.67201   1.69194   1.69689   1.69978   1.73456
 Alpha virt. eigenvalues --    1.76022   1.76529   1.77395   1.77843   1.79489
 Alpha virt. eigenvalues --    1.79623   1.80765   1.81052   1.83085   1.83544
 Alpha virt. eigenvalues --    1.84697   1.86709   1.86982   1.88224   1.88441
 Alpha virt. eigenvalues --    1.89266   1.89729   1.90435   1.91941   1.92210
 Alpha virt. eigenvalues --    1.92414   1.92936   1.94661   1.94959   1.95730
 Alpha virt. eigenvalues --    1.95847   1.96417   1.98698   1.98765   1.99640
 Alpha virt. eigenvalues --    2.00545   2.01594   2.03173   2.03670   2.04278
 Alpha virt. eigenvalues --    2.05055   2.06878   2.07398   2.07940   2.08545
 Alpha virt. eigenvalues --    2.08667   2.09947   2.10592   2.11637   2.12462
 Alpha virt. eigenvalues --    2.13595   2.13969   2.14161   2.15254   2.15585
 Alpha virt. eigenvalues --    2.16567   2.16650   2.17111   2.18083   2.18947
 Alpha virt. eigenvalues --    2.20066   2.20136   2.21522   2.22614   2.22993
 Alpha virt. eigenvalues --    2.23265   2.23823   2.24176   2.25269   2.25580
 Alpha virt. eigenvalues --    2.27116   2.27658   2.27788   2.28304   2.29550
 Alpha virt. eigenvalues --    2.29597   2.30118   2.31094   2.31583   2.32632
 Alpha virt. eigenvalues --    2.33032   2.34297   2.34710   2.35144   2.37013
 Alpha virt. eigenvalues --    2.37100   2.38472   2.40005   2.40723   2.40856
 Alpha virt. eigenvalues --    2.41252   2.42158   2.42249   2.43076   2.43677
 Alpha virt. eigenvalues --    2.44918   2.45548   2.46533   2.48860   2.50614
 Alpha virt. eigenvalues --    2.51057   2.51800   2.53121   2.56273   2.56460
 Alpha virt. eigenvalues --    2.56767   2.58650   2.59013   2.59871   2.60560
 Alpha virt. eigenvalues --    2.60983   2.61155   2.61535   2.62548   2.63268
 Alpha virt. eigenvalues --    2.65030   2.65579   2.65871   2.66732   2.67355
 Alpha virt. eigenvalues --    2.67637   2.68073   2.68143   2.69392   2.70665
 Alpha virt. eigenvalues --    2.71126   2.71235   2.72343   2.73244   2.73911
 Alpha virt. eigenvalues --    2.74583   2.75236   2.76385   2.76638   2.77002
 Alpha virt. eigenvalues --    2.78468   2.79190   2.79240   2.80201   2.80725
 Alpha virt. eigenvalues --    2.81747   2.82578   2.83336   2.84064   2.84409
 Alpha virt. eigenvalues --    2.84829   2.85448   2.86306   2.87104   2.87575
 Alpha virt. eigenvalues --    2.88888   2.89036   2.91054   2.92295   2.92603
 Alpha virt. eigenvalues --    2.93106   2.94279   2.96368   2.97776   2.98137
 Alpha virt. eigenvalues --    2.98314   2.98746   2.99000   3.00498   3.02411
 Alpha virt. eigenvalues --    3.02778   3.03937   3.04843   3.04868   3.05645
 Alpha virt. eigenvalues --    3.06780   3.07809   3.08597   3.10079   3.12433
 Alpha virt. eigenvalues --    3.14955   3.14989   3.16145   3.16687   3.19725
 Alpha virt. eigenvalues --    3.21602   3.21733   3.22671   3.23605   3.25977
 Alpha virt. eigenvalues --    3.26692   3.27297   3.28364   3.30747   3.32213
 Alpha virt. eigenvalues --    3.33563   3.33935   3.34404   3.36613   3.37970
 Alpha virt. eigenvalues --    3.38393   3.40393   3.40473   3.41507   3.42973
 Alpha virt. eigenvalues --    3.43213   3.44670   3.45829   3.46315   3.49202
 Alpha virt. eigenvalues --    3.50123   3.50584   3.51780   3.52572   3.54465
 Alpha virt. eigenvalues --    3.55624   3.57917   3.58406   3.58447   3.59787
 Alpha virt. eigenvalues --    3.60330   3.60757   3.63942   3.64197   3.65383
 Alpha virt. eigenvalues --    3.66905   3.67603   3.68573   3.69084   3.73034
 Alpha virt. eigenvalues --    3.74246   3.74858   3.76034   3.77601   3.78150
 Alpha virt. eigenvalues --    3.79846   3.81750   3.81851   3.84408   3.84839
 Alpha virt. eigenvalues --    3.86844   3.87611   3.90595   3.91815   3.93377
 Alpha virt. eigenvalues --    3.97338   3.97781   3.98782   3.99347   4.01474
 Alpha virt. eigenvalues --    4.01527   4.05146   4.05619   4.08271   4.09036
 Alpha virt. eigenvalues --    4.09340   4.11642   4.13843   4.13875   4.16095
 Alpha virt. eigenvalues --    4.17019   4.19796   4.19836   4.20334   4.20434
 Alpha virt. eigenvalues --    4.24170   4.25826   4.26459   4.28346   4.33671
 Alpha virt. eigenvalues --    4.34665   4.40620   4.41299   4.44079   4.48437
 Alpha virt. eigenvalues --    4.49040   4.50289   4.54234   4.58356   4.64079
 Alpha virt. eigenvalues --    4.64237   4.66196   4.70177   4.73190   4.73490
 Alpha virt. eigenvalues --    4.75807   4.75900   4.77578   4.77905   4.80170
 Alpha virt. eigenvalues --    4.83953   4.86958   4.87926   4.88007   4.89869
 Alpha virt. eigenvalues --    4.90182   4.91793   4.94234   4.97099   4.99146
 Alpha virt. eigenvalues --    5.03445   5.04284   5.04744   5.06485   5.07592
 Alpha virt. eigenvalues --    5.09783   5.11038   5.12810   5.17119   5.19205
 Alpha virt. eigenvalues --    5.20137   5.21265   5.23349   5.23659   5.24938
 Alpha virt. eigenvalues --    5.25060   5.25910   5.26603   5.28424   5.29734
 Alpha virt. eigenvalues --    5.30029   5.30637   5.32915   5.33770   5.34235
 Alpha virt. eigenvalues --    5.35896   5.38263   5.38636   5.40375   5.41731
 Alpha virt. eigenvalues --    5.42907   5.43084   5.44217   5.47109   5.48047
 Alpha virt. eigenvalues --    5.49242   5.49937   5.50084   5.51796   5.52571
 Alpha virt. eigenvalues --    5.54091   5.55734   5.56487   5.57436   5.58957
 Alpha virt. eigenvalues --    5.60345   5.60819   5.61541   5.62988   5.66304
 Alpha virt. eigenvalues --    5.66863   5.67764   5.69553   5.71291   5.71625
 Alpha virt. eigenvalues --    5.72997   5.73438   5.74458   5.74877   5.78224
 Alpha virt. eigenvalues --    5.78388   5.80342   5.84240   5.84865   5.86548
 Alpha virt. eigenvalues --    5.86637   5.87123   5.88295   5.89702   5.90383
 Alpha virt. eigenvalues --    5.90835   5.92287   5.92559   5.92771   5.94127
 Alpha virt. eigenvalues --    5.94848   5.96455   5.96799   5.96934   5.97424
 Alpha virt. eigenvalues --    5.98206   5.98419   5.99550   6.00864   6.01065
 Alpha virt. eigenvalues --    6.02509   6.02728   6.03792   6.04829   6.05414
 Alpha virt. eigenvalues --    6.07010   6.07257   6.07608   6.08058   6.08814
 Alpha virt. eigenvalues --    6.09035   6.09927   6.11532   6.11569   6.12192
 Alpha virt. eigenvalues --    6.13624   6.13635   6.15262   6.15822   6.16036
 Alpha virt. eigenvalues --    6.18599   6.19781   6.20569   6.21194   6.21381
 Alpha virt. eigenvalues --    6.22451   6.23562   6.23739   6.23932   6.24367
 Alpha virt. eigenvalues --    6.26506   6.26797   6.27663   6.28444   6.30456
 Alpha virt. eigenvalues --    6.30850   6.31193   6.32419   6.33021   6.33104
 Alpha virt. eigenvalues --    6.34430   6.35617   6.36865   6.37140   6.38285
 Alpha virt. eigenvalues --    6.38325   6.39489   6.40035   6.42249   6.42528
 Alpha virt. eigenvalues --    6.42950   6.44129   6.44739   6.45920   6.47716
 Alpha virt. eigenvalues --    6.49145   6.49779   6.50109   6.50802   6.51380
 Alpha virt. eigenvalues --    6.53807   6.54394   6.56348   6.57502   6.58146
 Alpha virt. eigenvalues --    6.59328   6.60096   6.60861   6.61604   6.62356
 Alpha virt. eigenvalues --    6.62981   6.63020   6.63935   6.65534   6.68250
 Alpha virt. eigenvalues --    6.69137   6.69634   6.70272   6.71099   6.71799
 Alpha virt. eigenvalues --    6.72101   6.72803   6.73015   6.75297   6.78462
 Alpha virt. eigenvalues --    6.79378   6.79875   6.80124   6.81074   6.82101
 Alpha virt. eigenvalues --    6.87639   6.88816   6.89531   6.90437   6.92250
 Alpha virt. eigenvalues --    6.92392   6.93744   6.95045   6.97031   6.97172
 Alpha virt. eigenvalues --    6.99021   7.00163   7.07447   7.07764   7.11010
 Alpha virt. eigenvalues --    7.12096   7.15819   7.16232   7.18666   7.19592
 Alpha virt. eigenvalues --    7.22738   7.23994   7.26230   7.26268   7.28044
 Alpha virt. eigenvalues --    7.29752   7.32206   7.35707   7.36046   7.37093
 Alpha virt. eigenvalues --    7.38545   7.38851   7.40459   7.40945   7.42514
 Alpha virt. eigenvalues --    7.43478   7.44042   7.44733   7.45097   7.45126
 Alpha virt. eigenvalues --    7.46517   7.48218   7.48934   7.51765   7.52358
 Alpha virt. eigenvalues --    7.53693   7.54757   7.55685   7.57443   7.57837
 Alpha virt. eigenvalues --    7.59922   7.60141   7.60337   7.62245   7.63673
 Alpha virt. eigenvalues --    7.64150   7.64680   7.66343   7.67890   7.68526
 Alpha virt. eigenvalues --    7.69628   7.70056   7.70520   7.73534   7.73670
 Alpha virt. eigenvalues --    7.75058   7.77141   7.77335   7.79773   7.82672
 Alpha virt. eigenvalues --    7.83270   7.84060   7.85343   7.85590   7.85986
 Alpha virt. eigenvalues --    7.87424   7.87513   7.89054   7.91524   7.91597
 Alpha virt. eigenvalues --    7.92838   7.93306   7.95455   7.96062   7.96207
 Alpha virt. eigenvalues --    7.98311   7.98731   8.00525   8.00970   8.03608
 Alpha virt. eigenvalues --    8.05404   8.05938   8.07111   8.09056   8.09956
 Alpha virt. eigenvalues --    8.12703   8.13265   8.13504   8.14893   8.15512
 Alpha virt. eigenvalues --    8.16443   8.17355   8.17717   8.17930   8.18735
 Alpha virt. eigenvalues --    8.19145   8.20129   8.20375   8.20814   8.22244
 Alpha virt. eigenvalues --    8.23565   8.23645   8.24524   8.25415   8.25665
 Alpha virt. eigenvalues --    8.26776   8.27590   8.28566   8.29998   8.30133
 Alpha virt. eigenvalues --    8.30423   8.32793   8.33076   8.33861   8.34688
 Alpha virt. eigenvalues --    8.39069   8.39208   8.40370   8.40582   8.43198
 Alpha virt. eigenvalues --    8.43613   8.43821   8.46217   8.48659   8.49533
 Alpha virt. eigenvalues --    8.50426   8.52294   8.54439   8.55391   8.56795
 Alpha virt. eigenvalues --    8.58514   8.59776   8.61358   8.63662   8.64719
 Alpha virt. eigenvalues --    8.66931   8.68543   8.70076   8.71557   8.72678
 Alpha virt. eigenvalues --    8.73128   8.79417   8.79637   8.80505   8.85102
 Alpha virt. eigenvalues --    8.86805   8.90319   8.91474   8.92689   8.96031
 Alpha virt. eigenvalues --    9.00756   9.03388   9.05121   9.08260   9.11167
 Alpha virt. eigenvalues --    9.12515   9.13488   9.16528   9.18124   9.23321
 Alpha virt. eigenvalues --    9.23454   9.26086   9.26309   9.37357   9.39263
 Alpha virt. eigenvalues --    9.42802   9.43672   9.49254   9.50945   9.53301
 Alpha virt. eigenvalues --    9.53533   9.54615   9.55580   9.56413   9.56648
 Alpha virt. eigenvalues --    9.59849   9.62052   9.63742   9.65015   9.65140
 Alpha virt. eigenvalues --    9.66852   9.68037   9.70226   9.71318   9.75166
 Alpha virt. eigenvalues --    9.76873   9.79507   9.79767   9.80472   9.83073
 Alpha virt. eigenvalues --    9.91102   9.94603   9.94847   9.96500   9.97394
 Alpha virt. eigenvalues --    9.99399  10.01359  10.03929  10.06547  10.08667
 Alpha virt. eigenvalues --   10.09469  10.11406  10.12205  10.13336  10.14576
 Alpha virt. eigenvalues --   10.18192  10.23749  10.26511  10.34795  10.36969
 Alpha virt. eigenvalues --   10.49081  10.49812  10.50830  10.51094  10.57736
 Alpha virt. eigenvalues --   10.62389  10.76948  10.78071  10.88600  10.90966
 Alpha virt. eigenvalues --   11.40721  11.43914  11.66468  11.67309  11.82866
 Alpha virt. eigenvalues --   11.86641  11.93069  11.93992  12.23104  12.34459
 Alpha virt. eigenvalues --   12.58844  12.59727  12.67088  12.70925  12.86279
 Alpha virt. eigenvalues --   12.87525  13.11381  13.12308  28.23909  28.36172
 Alpha virt. eigenvalues --   28.63868  28.66582  28.75425  28.77758  29.07076
 Alpha virt. eigenvalues --   29.10165  29.25650  29.28401  37.80568  37.83840
 Alpha virt. eigenvalues --  145.74275 145.88842 146.12843 146.15247 146.21770
 Alpha virt. eigenvalues --  146.24843 146.52712 146.56109 146.73573 146.76398
 Alpha virt. eigenvalues --  195.37017 195.41584
          Condensed to atoms (all electrons):
               1          2          3          4          5          6
     1  N    7.172879   0.231212  -0.080090   0.021448  -0.080090   0.231212
     2  C    0.231212   6.083285   0.125985  -0.106901   0.014270  -0.132340
     3  C   -0.080090   0.125985   6.179942   0.196360  -0.233313   0.014270
     4  C    0.021448  -0.106901   0.196360   6.326079   0.196360  -0.106901
     5  C   -0.080090   0.014270  -0.233313   0.196360   6.179942   0.125985
     6  C    0.231212  -0.132340   0.014270  -0.106901   0.125985   6.083285
     7  H   -0.141827   0.248724  -0.023861   0.021946  -0.063457  -0.015877
     8  H   -0.004335  -0.064050   0.274966  -0.065467   0.011250  -0.020664
     9  H   -0.001434   0.014333  -0.032822   0.192009  -0.032822   0.014333
    10  H   -0.004335  -0.020664   0.011250  -0.065467   0.274966  -0.064050
    11  H   -0.141827  -0.015877  -0.063457   0.021946  -0.023861   0.248724
    12  N    0.000452   0.001546   0.003768   0.005568   0.003768   0.001546
    13  C   -0.000334  -0.000119  -0.001516  -0.002130  -0.001516  -0.000119
    14  C    0.003088   0.003735  -0.005385   0.005712  -0.005385   0.003735
    15  C   -0.002718   0.002540   0.000115  -0.015349   0.000115   0.002540
    16  C   -0.034077  -0.081130   0.018119   0.006363   0.018119  -0.081130
    17  C    0.000225   0.009356  -0.048818   0.080891  -0.048818   0.009356
    18  H    0.000050   0.000052  -0.000353   0.000189  -0.000353   0.000052
    19  H    0.000055  -0.000001  -0.000101  -0.000219  -0.000101  -0.000001
    20  H    0.002851   0.001060  -0.001965   0.000613  -0.001965   0.001060
    21  H    0.036649   0.038770  -0.046632  -0.006170  -0.046632   0.038770
    22  H   -0.009407  -0.043547  -0.009909  -0.027322  -0.009909  -0.043547
               7          8          9         10         11         12
     1  N   -0.141827  -0.004335  -0.001434  -0.004335  -0.141827   0.000452
     2  C    0.248724  -0.064050   0.014333  -0.020664  -0.015877   0.001546
     3  C   -0.023861   0.274966  -0.032822   0.011250  -0.063457   0.003768
     4  C    0.021946  -0.065467   0.192009  -0.065467   0.021946   0.005568
     5  C   -0.063457   0.011250  -0.032822   0.274966  -0.023861   0.003768
     6  C   -0.015877  -0.020664   0.014333  -0.064050   0.248724   0.001546
     7  H    0.535551   0.042742   0.003259   0.000701  -0.011724   0.000052
     8  H    0.042742   0.406676   0.028853   0.003470   0.000701  -0.000851
     9  H    0.003259   0.028853   0.400115   0.028853   0.003259   0.000494
    10  H    0.000701   0.003470   0.028853   0.406676   0.042742  -0.000851
    11  H   -0.011724   0.000701   0.003259   0.042742   0.535551   0.000052
    12  N    0.000052  -0.000851   0.000494  -0.000851   0.000052   7.313018
    13  C   -0.000418  -0.000444  -0.000283  -0.000444  -0.000418   0.117410
    14  C    0.000041   0.000496  -0.000421   0.000496   0.000041  -0.090096
    15  C   -0.004506  -0.002089  -0.000413  -0.002089  -0.004506  -0.026965
    16  C    0.024243   0.002542  -0.002607   0.002542   0.024243  -0.040920
    17  C    0.012607   0.014078   0.007267   0.014078   0.012607   0.312917
    18  H   -0.000016   0.000036  -0.000023   0.000036  -0.000016  -0.155069
    19  H   -0.000023  -0.000020  -0.000011  -0.000020  -0.000023  -0.004814
    20  H   -0.000529  -0.000087  -0.000053  -0.000087  -0.000529  -0.002567
    21  H   -0.000312   0.001449   0.001569   0.001449  -0.000312  -0.006127
    22  H   -0.015453  -0.043243  -0.080010  -0.043243  -0.015453  -0.098482
              13         14         15         16         17         18
     1  N   -0.000334   0.003088  -0.002718  -0.034077   0.000225   0.000050
     2  C   -0.000119   0.003735   0.002540  -0.081130   0.009356   0.000052
     3  C   -0.001516  -0.005385   0.000115   0.018119  -0.048818  -0.000353
     4  C   -0.002130   0.005712  -0.015349   0.006363   0.080891   0.000189
     5  C   -0.001516  -0.005385   0.000115   0.018119  -0.048818  -0.000353
     6  C   -0.000119   0.003735   0.002540  -0.081130   0.009356   0.000052
     7  H   -0.000418   0.000041  -0.004506   0.024243   0.012607  -0.000016
     8  H   -0.000444   0.000496  -0.002089   0.002542   0.014078   0.000036
     9  H   -0.000283  -0.000421  -0.000413  -0.002607   0.007267  -0.000023
    10  H   -0.000444   0.000496  -0.002089   0.002542   0.014078   0.000036
    11  H   -0.000418   0.000041  -0.004506   0.024243   0.012607  -0.000016
    12  N    0.117410  -0.090096  -0.026965  -0.040920   0.312917  -0.155069
    13  C    5.943549   0.220588  -0.091970   0.058057  -0.008724   0.262552
    14  C    0.220588   5.877799   0.212608  -0.254433   0.007187  -0.021850
    15  C   -0.091970   0.212608   6.054721   0.061139  -0.018615  -0.018842
    16  C    0.058057  -0.254433   0.061139   5.954212   0.526810  -0.028319
    17  C   -0.008724   0.007187  -0.018615   0.526810   5.055182  -0.033740
    18  H    0.262552  -0.021850  -0.018842  -0.028319  -0.033740   0.518321
    19  H   -0.063387   0.266767  -0.053923   0.006104  -0.009387   0.023460
    20  H    0.010626  -0.038581   0.270368  -0.039024  -0.002660   0.000082
    21  H    0.009975   0.016943   0.078985   0.197481  -0.077171  -0.001075
    22  H    0.018787   0.008956   0.027404  -0.112414   0.360904  -0.003127
              19         20         21         22
     1  N    0.000055   0.002851   0.036649  -0.009407
     2  C   -0.000001   0.001060   0.038770  -0.043547
     3  C   -0.000101  -0.001965  -0.046632  -0.009909
     4  C   -0.000219   0.000613  -0.006170  -0.027322
     5  C   -0.000101  -0.001965  -0.046632  -0.009909
     6  C   -0.000001   0.001060   0.038770  -0.043547
     7  H   -0.000023  -0.000529  -0.000312  -0.015453
     8  H   -0.000020  -0.000087   0.001449  -0.043243
     9  H   -0.000011  -0.000053   0.001569  -0.080010
    10  H   -0.000020  -0.000087   0.001449  -0.043243
    11  H   -0.000023  -0.000529  -0.000312  -0.015453
    12  N   -0.004814  -0.002567  -0.006127  -0.098482
    13  C   -0.063387   0.010626   0.009975   0.018787
    14  C    0.266767  -0.038581   0.016943   0.008956
    15  C   -0.053923   0.270368   0.078985   0.027404
    16  C    0.006104  -0.039024   0.197481  -0.112414
    17  C   -0.009387  -0.002660  -0.077171   0.360904
    18  H    0.023460   0.000082  -0.001075  -0.003127
    19  H    0.361898   0.002734  -0.000089  -0.001358
    20  H    0.002734   0.369192   0.004112   0.005243
    21  H   -0.000089   0.004112   0.505521   0.032880
    22  H   -0.001358   0.005243   0.032880   0.795146
 Mulliken charges:
               1
     1  N   -0.199646
     2  C   -0.310239
     3  C   -0.276553
     4  C   -0.679559
     5  C   -0.276553
     6  C   -0.310239
     7  H    0.388136
     8  H    0.413991
     9  H    0.456555
    10  H    0.413991
    11  H    0.388136
    12  N   -0.333848
    13  C   -0.469721
    14  C   -0.212039
    15  C   -0.468551
    16  C   -0.225919
    17  C   -0.175533
    18  H    0.457956
    19  H    0.472460
    20  H    0.420105
    21  H    0.219968
    22  H    0.307103
 Sum of Mulliken charges =  -0.00000
 Mulliken charges with hydrogens summed into heavy atoms:
               1
     1  N   -0.199646
     2  C    0.077897
     3  C    0.137438
     4  C   -0.223004
     5  C    0.137438
     6  C    0.077897
    12  N   -0.333848
    13  C   -0.011766
    14  C    0.260421
    15  C   -0.048446
    16  C   -0.005951
    17  C    0.131569
 Electronic spatial extent (au):  <R**2>=           2129.7376
 Charge=             -0.0000 electrons
 Dipole moment (field-independent basis, Debye):
    X=             -0.8658    Y=             -0.0330    Z=             -0.0000  Tot=              0.8664
 Quadrupole moment (field-independent basis, Debye-Ang):
   XX=            -68.7817   YY=            -72.5546   ZZ=            -66.7788
[...]
 Alpha virt. eigenvalues --    2.93106   2.94279   2.96368   2.97776   2.98137
 Alpha virt. eigenvalues --    2.98314   2.98746   2.99000   3.00498   3.02411
 Alpha virt. eigenvalues --    3.02778   3.03937   3.04843   3.04868   3.05645
 Alpha virt. eigenvalues --    3.06780   3.07809   3.08597   3.10079   3.12433
 Alpha virt. eigenvalues --    3.14955   3.14989   3.16145   3.16687   3.19725
 Alpha virt. eigenvalues --    3.21602   3.21733   3.22671   3.23605   3.25977
 Alpha virt. eigenvalues --    3.26692   3.27297   3.28364   3.30747   3.32213
 Alpha virt. eigenvalues --    3.33563   3.33935   3.34404   3.36613   3.37970
 Alpha virt. eigenvalues --    3.38393   3.40393   3.40473   3.41507   3.42973
 Alpha virt. eigenvalues --    3.43213   3.44670   3.45829   3.46315   3.49202
 Alpha virt. eigenvalues --    3.50123   3.50584   3.51780   3.52572   3.54465
 Alpha virt. eigenvalues --    3.55624   3.57917   3.58406   3.58447   3.59787
 Alpha virt. eigenvalues --    3.60330   3.60757   3.63942   3.64197   3.65383
 Alpha virt. eigenvalues --    3.66905   3.67603   3.68573   3.69084   3.73034
 Alpha virt. eigenvalues --    3.74246   3.74858   3.76034   3.77601   3.78150
 Alpha virt. eigenvalues --    3.79846   3.81750   3.81851   3.84408   3.84839
 Alpha virt. eigenvalues --    3.86844   3.87611   3.90595   3.91815   3.93377
 Alpha virt. eigenvalues --    3.97338   3.97781   3.98782   3.99347   4.01474
 Alpha virt. eigenvalues --    4.01527   4.05146   4.05619   4.08271   4.09036
 Alpha virt. eigenvalues --    4.09340   4.11642   4.13843   4.13875   4.16095
 Alpha virt. eigenvalues --    4.17019   4.19796   4.19836   4.20334   4.20434
 Alpha virt. eigenvalues --    4.24170   4.25826   4.26459   4.28346   4.33671
 Alpha virt. eigenvalues --    4.34665   4.40620   4.41299   4.44079   4.48437
 Alpha virt. eigenvalues --    4.49040   4.50289   4.54234   4.58356   4.64079
 Alpha virt. eigenvalues --    4.64237   4.66196   4.70177   4.73190   4.73490
 Alpha virt. eigenvalues --    4.75807   4.75900   4.77578   4.77905   4.80170
 Alpha virt. eigenvalues --    4.83953   4.86958   4.87926   4.88007   4.89869
 Alpha virt. eigenvalues --    4.90182   4.91793   4.94234   4.97099   4.99146
 Alpha virt. eigenvalues --    5.03445   5.04284   5.04744   5.06485   5.07592
 Alpha virt. eigenvalues --    5.09783   5.11038   5.12810   5.17119   5.19205
 Alpha virt. eigenvalues --    5.20137   5.21265   5.23349   5.23659   5.24938
 Alpha virt. eigenvalues --    5.25060   5.25910   5.26603   5.28424   5.29734
 Alpha virt. eigenvalues --    5.30029   5.30637   5.32915   5.33770   5.34235
 Alpha virt. eigenvalues --    5.35896   5.38263   5.38636   5.40375   5.41731
 Alpha virt. eigenvalues --    5.42907   5.43084   5.44217   5.47109   5.48047
 Alpha virt. eigenvalues --    5.49242   5.49937   5.50084   5.51796   5.52571
 Alpha virt. eigenvalues --    5.54091   5.55734   5.56487   5.57436   5.58957
 Alpha virt. eigenvalues --    5.60345   5.60819   5.61541   5.62988   5.66304
 Alpha virt. eigenvalues --    5.66863   5.67764   5.69553   5.71291   5.71625
 Alpha virt. eigenvalues --    5.72997   5.73438   5.74458   5.74877   5.78224
 Alpha virt. eigenvalues --    5.78388   5.80342   5.84240   5.84865   5.86548
 Alpha virt. eigenvalues --    5.86637   5.87123   5.88295   5.89702   5.90383
 Alpha virt. eigenvalues --    5.90835   5.92287   5.92559   5.92771   5.94127
 Alpha virt. eigenvalues --    5.94848   5.96455   5.96799   5.96934   5.97424
 Alpha virt. eigenvalues --    5.98206   5.98419   5.99550   6.00864   6.01065
 Alpha virt. eigenvalues --    6.02509   6.02728   6.03792   6.04829   6.05414
 Alpha virt. eigenvalues --    6.07010   6.07257   6.07608   6.08058   6.08814
 Alpha virt. eigenvalues --    6.09035   6.09927   6.11532   6.11569   6.12192
 Alpha virt. eigenvalues --    6.13624   6.13635   6.15262   6.15822   6.16036
 Alpha virt. eigenvalues --    6.18599   6.19781   6.20569   6.21194   6.21381
 Alpha virt. eigenvalues --    6.22451   6.23562   6.23739   6.23932   6.24367
 Alpha virt. eigenvalues --    6.26506   6.26797   6.27663   6.28444   6.30456
 Alpha virt. eigenvalues --    6.30850   6.31193   6.32419   6.33021   6.33104
 Alpha virt. eigenvalues --    6.34430   6.35617   6.36865   6.37140   6.38285
 Alpha virt. eigenvalues --    6.38325   6.39489   6.40035   6.42249   6.42528
 Alpha virt. eigenvalues --    6.42950   6.44129   6.44739   6.45920   6.47716
 Alpha virt. eigenvalues --    6.49145   6.49779   6.50109   6.50802   6.51380
 Alpha virt. eigenvalues --    6.53807   6.54394   6.56348   6.57502   6.58146
 Alpha virt. eigenvalues --    6.59328   6.60096   6.60861   6.61604   6.62356
 Alpha virt. eigenvalues --    6.62981   6.63020   6.63935   6.65534   6.68250
 Alpha virt. eigenvalues --    6.69137   6.69634   6.70272   6.71099   6.71799
 Alpha virt. eigenvalues --    6.72101   6.72803   6.73015   6.75297   6.78462
 Alpha virt. eigenvalues --    6.79378   6.79875   6.80124   6.81074   6.82101
 Alpha virt. eigenvalues --    6.87639   6.88816   6.89531   6.90437   6.92250
 Alpha virt. eigenvalues --    6.92392   6.93744   6.95045   6.97031   6.97172
 Alpha virt. eigenvalues --    6.99021   7.00163   7.07447   7.07764   7.11010
 Alpha virt. eigenvalues --    7.12096   7.15819   7.16232   7.18666   7.19592
 Alpha virt. eigenvalues --    7.22738   7.23994   7.26230   7.26268   7.28044
 Alpha virt. eigenvalues --    7.29752   7.32206   7.35707   7.36046   7.37093
 Alpha virt. eigenvalues --    7.38545   7.38851   7.40459   7.40945   7.42514
 Alpha virt. eigenvalues --    7.43478   7.44042   7.44733   7.45097   7.45126
 Alpha virt. eigenvalues --    7.46517   7.48218   7.48934   7.51765   7.52358
 Alpha virt. eigenvalues --    7.53693   7.54757   7.55685   7.57443   7.57837
 Alpha virt. eigenvalues --    7.59922   7.60141   7.60337   7.62245   7.63673
 Alpha virt. eigenvalues --    7.64150   7.64680   7.66343   7.67890   7.68526
 Alpha virt. eigenvalues --    7.69628   7.70056   7.70520   7.73534   7.73670
 Alpha virt. eigenvalues --    7.75058   7.77141   7.77335   7.79773   7.82672
 Alpha virt. eigenvalues --    7.83270   7.84060   7.85343   7.85590   7.85986
 Alpha virt. eigenvalues --    7.87424   7.87513   7.89054   7.91524   7.91597
 Alpha virt. eigenvalues --    7.92838   7.93306   7.95455   7.96062   7.96207
 Alpha virt. eigenvalues --    7.98311   7.98731   8.00525   8.00970   8.03608
 Alpha virt. eigenvalues --    8.05404   8.05938   8.07111   8.09056   8.09956
 Alpha virt. eigenvalues --    8.12703   8.13265   8.13504   8.14893   8.15512
 Alpha virt. eigenvalues --    8.16443   8.17355   8.17717   8.17930   8.18735
 Alpha virt. eigenvalues --    8.19145   8.20129   8.20375   8.20814   8.22244
 Alpha virt. eigenvalues --    8.23565   8.23645   8.24524   8.25415   8.25665
 Alpha virt. eigenvalues --    8.26776   8.27590   8.28566   8.29998   8.30133
 Alpha virt. eigenvalues --    8.30423   8.32793   8.33076   8.33861   8.34688
 Alpha virt. eigenvalues --    8.39069   8.39208   8.40370   8.40582   8.43198
 Alpha virt. eigenvalues --    8.43613   8.43821   8.46217   8.48659   8.49533
 Alpha virt. eigenvalues --    8.50426   8.52294   8.54439   8.55391   8.56795
 Alpha virt. eigenvalues --    8.58514   8.59776   8.61358   8.63662   8.64719
 Alpha virt. eigenvalues --    8.66931   8.68543   8.70076   8.71557   8.72678
 Alpha virt. eigenvalues --    8.73128   8.79417   8.79637   8.80505   8.85102
 Alpha virt. eigenvalues --    8.86805   8.90319   8.91474   8.92689   8.96031
 Alpha virt. eigenvalues --    9.00756   9.03388   9.05121   9.08260   9.11167
 Alpha virt. eigenvalues --    9.12515   9.13488   9.16528   9.18124   9.23321
 Alpha virt. eigenvalues --    9.23454   9.26086   9.26309   9.37357   9.39263
 Alpha virt. eigenvalues --    9.42802   9.43672   9.49254   9.50945   9.53301
 Alpha virt. eigenvalues --    9.53533   9.54615   9.55580   9.56413   9.56648
 Alpha virt. eigenvalues --    9.59849   9.62052   9.63742   9.65015   9.65140
 Alpha virt. eigenvalues --    9.66852   9.68037   9.70226   9.71318   9.75166
 Alpha virt. eigenvalues --    9.76873   9.79507   9.79767   9.80472   9.83073
 Alpha virt. eigenvalues --    9.91102   9.94603   9.94847   9.96500   9.97394
 Alpha virt. eigenvalues --    9.99399  10.01359  10.03929  10.06547  10.08667
 Alpha virt. eigenvalues --   10.09469  10.11406  10.12205  10.13336  10.14576
 Alpha virt. eigenvalues --   10.18192  10.23749  10.26511  10.34795  10.36969
 Alpha virt. eigenvalues --   10.49081  10.49812  10.50830  10.51094  10.57736
 Alpha virt. eigenvalues --   10.62389  10.76948  10.78071  10.88600  10.90966
 Alpha virt. eigenvalues --   11.40721  11.43914  11.66468  11.67309  11.82866
 Alpha virt. eigenvalues --   11.86641  11.93069  11.93992  12.23104  12.34459
 Alpha virt. eigenvalues --   12.58844  12.59727  12.67088  12.70925  12.86279
 Alpha virt. eigenvalues --   12.87525  13.11381  13.12308  28.23909  28.36172
 Alpha virt. eigenvalues --   28.63868  28.66582  28.75425  28.77758  29.07076
 Alpha virt. eigenvalues --   29.10165  29.25650  29.28401  37.80568  37.83840
 Alpha virt. eigenvalues --  145.74275 145.88842 146.12843 146.15247 146.21770
 Alpha virt. eigenvalues --  146.24843 146.52712 146.56109 146.73573 146.76398
 Alpha virt. eigenvalues --  195.37017 195.41584
          Condensed to atoms (all electrons):
               1          2          3          4          5          6
     1  N    7.172879   0.231212  -0.080090   0.021448  -0.080090   0.231212
     2  C    0.231212   6.083285   0.125985  -0.106901   0.014270  -0.132340
     3  C   -0.080090   0.125985   6.179942   0.196360  -0.233313   0.014270
     4  C    0.021448  -0.106901   0.196360   6.326079   0.196360  -0.106901
     5  C   -0.080090   0.014270  -0.233313   0.196360   6.179942   0.125985
     6  C    0.231212  -0.132340   0.014270  -0.106901   0.125985   6.083285
     7  H   -0.141827   0.248724  -0.023861   0.021946  -0.063457  -0.015877
     8  H   -0.004335  -0.064050   0.274966  -0.065467   0.011250  -0.020664
     9  H   -0.001434   0.014333  -0.032822   0.192009  -0.032822   0.014333
    10  H   -0.004335  -0.020664   0.011250  -0.065467   0.274966  -0.064050
    11  H   -0.141827  -0.015877  -0.063457   0.021946  -0.023861   0.248724
    12  N    0.000452   0.001546   0.003768   0.005568   0.003768   0.001546
    13  C   -0.000334  -0.000119  -0.001516  -0.002130  -0.001516  -0.000119
    14  C    0.003088   0.003735  -0.005385   0.005712  -0.005385   0.003735
    15  C   -0.002718   0.002540   0.000115  -0.015349   0.000115   0.002540
    16  C   -0.034077  -0.081130   0.018119   0.006363   0.018119  -0.081130
    17  C    0.000225   0.009356  -0.048818   0.080891  -0.048818   0.009356
    18  H    0.000050   0.000052  -0.000353   0.000189  -0.000353   0.000052
    19  H    0.000055  -0.000001  -0.000101  -0.000219  -0.000101  -0.000001
    20  H    0.002851   0.001060  -0.001965   0.000613  -0.001965   0.001060
    21  H    0.036649   0.038770  -0.046632  -0.006170  -0.046632   0.038770
    22  H   -0.009407  -0.043547  -0.009909  -0.027322  -0.009909  -0.043547
               7          8          9         10         11         12
     1  N   -0.141827  -0.004335  -0.001434  -0.004335  -0.141827   0.000452
     2  C    0.248724  -0.064050   0.014333  -0.020664  -0.015877   0.001546
     3  C   -0.023861   0.274966  -0.032822   0.011250  -0.063457   0.003768
     4  C    0.021946  -0.065467   0.192009  -0.065467   0.021946   0.005568
     5  C   -0.063457   0.011250  -0.032822   0.274966  -0.023861   0.003768
     6  C   -0.015877  -0.020664   0.014333  -0.064050   0.248724   0.001546
     7  H    0.535551   0.042742   0.003259   0.000701  -0.011724   0.000052
     8  H    0.042742   0.406676   0.028853   0.003470   0.000701  -0.000851
     9  H    0.003259   0.028853   0.400115   0.028853   0.003259   0.000494
    10  H    0.000701   0.003470   0.028853   0.406676   0.042742  -0.000851
    11  H   -0.011724   0.000701   0.003259   0.042742   0.535551   0.000052
    12  N    0.000052  -0.000851   0.000494  -0.000851   0.000052   7.313018
    13  C   -0.000418  -0.000444  -0.000283  -0.000444  -0.000418   0.117410
    14  C    0.000041   0.000496  -0.000421   0.000496   0.000041  -0.090096
    15  C   -0.004506  -0.002089  -0.000413  -0.002089  -0.004506  -0.026965
    16  C    0.024243   0.002542  -0.002607   0.002542   0.024243  -0.040920
    17  C    0.012607   0.014078   0.007267   0.014078   0.012607   0.312917
    18  H   -0.000016   0.000036  -0.000023   0.000036  -0.000016  -0.155069
    19  H   -0.000023  -0.000020  -0.000011  -0.000020  -0.000023  -0.004814
    20  H   -0.000529  -0.000087  -0.000053  -0.000087  -0.000529  -0.002567
    21  H   -0.000312   0.001449   0.001569   0.001449  -0.000312  -0.006127
    22  H   -0.015453  -0.043243  -0.080010  -0.043243  -0.015453  -0.098482
              13         14         15         16         17         18
     1  N   -0.000334   0.003088  -0.002718  -0.034077   0.000225   0.000050
     2  C   -0.000119   0.003735   0.002540  -0.081130   0.009356   0.000052
     3  C   -0.001516  -0.005385   0.000115   0.018119  -0.048818  -0.000353
     4  C   -0.002130   0.005712  -0.015349   0.006363   0.080891   0.000189
     5  C   -0.001516  -0.005385   0.000115   0.018119  -0.048818  -0.000353
     6  C   -0.000119   0.003735   0.002540  -0.081130   0.009356   0.000052
     7  H   -0.000418   0.000041  -0.004506   0.024243   0.012607  -0.000016
     8  H   -0.000444   0.000496  -0.002089   0.002542   0.014078   0.000036
     9  H   -0.000283  -0.000421  -0.000413  -0.002607   0.007267  -0.000023
    10  H   -0.000444   0.000496  -0.002089   0.002542   0.014078   0.000036
    11  H   -0.000418   0.000041  -0.004506   0.024243   0.012607  -0.000016
    12  N    0.117410  -0.090096  -0.026965  -0.040920   0.312917  -0.155069
    13  C    5.943549   0.220588  -0.091970   0.058057  -0.008724   0.262552
    14  C    0.220588   5.877799   0.212608  -0.254433   0.007187  -0.021850
    15  C   -0.091970   0.212608   6.054721   0.061139  -0.018615  -0.018842
    16  C    0.058057  -0.254433   0.061139   5.954212   0.526810  -0.028319
    17  C   -0.008724   0.007187  -0.018615   0.526810   5.055182  -0.033740
    18  H    0.262552  -0.021850  -0.018842  -0.028319  -0.033740   0.518321
    19  H   -0.063387   0.266767  -0.053923   0.006104  -0.009387   0.023460
    20  H    0.010626  -0.038581   0.270368  -0.039024  -0.002660   0.000082
    21  H    0.009975   0.016943   0.078985   0.197481  -0.077171  -0.001075
    22  H    0.018787   0.008956   0.027404  -0.112414   0.360904  -0.003127
              19         20         21         22
     1  N    0.000055   0.002851   0.036649  -0.009407
     2  C   -0.000001   0.001060   0.038770  -0.043547
     3  C   -0.000101  -0.001965  -0.046632  -0.009909
     4  C   -0.000219   0.000613  -0.006170  -0.027322
     5  C   -0.000101  -0.001965  -0.046632  -0.009909
     6  C   -0.000001   0.001060   0.038770  -0.043547
     7  H   -0.000023  -0.000529  -0.000312  -0.015453
     8  H   -0.000020  -0.000087   0.001449  -0.043243
     9  H   -0.000011  -0.000053   0.001569  -0.080010
    10  H   -0.000020  -0.000087   0.001449  -0.043243
    11  H   -0.000023  -0.000529  -0.000312  -0.015453
    12  N   -0.004814  -0.002567  -0.006127  -0.098482
    13  C   -0.063387   0.010626   0.009975   0.018787
    14  C    0.266767  -0.038581   0.016943   0.008956
    15  C   -0.053923   0.270368   0.078985   0.027404
    16  C    0.006104  -0.039024   0.197481  -0.112414
    17  C   -0.009387  -0.002660  -0.077171   0.360904
    18  H    0.023460   0.000082  -0.001075  -0.003127
    19  H    0.361898   0.002734  -0.000089  -0.001358
    20  H    0.002734   0.369192   0.004112   0.005243
    21  H   -0.000089   0.004112   0.505521   0.032880
    22  H   -0.001358   0.005243   0.032880   0.795146
 Mulliken charges:
               1
     1  N   -0.199646
     2  C   -0.310239
     3  C   -0.276553
     4  C   -0.679559
     5  C   -0.276553
     6  C   -0.310239
     7  H    0.388136
     8  H    0.413991
     9  H    0.456555
    10  H    0.413991
    11  H    0.388136
    12  N   -0.333848
    13  C   -0.469721
    14  C   -0.212039
    15  C   -0.468551
    16  C   -0.225919
    17  C   -0.175533
    18  H    0.457956
    19  H    0.472460
    20  H    0.420105
    21  H    0.219968
    22  H    0.307103
 Sum of Mulliken charges =  -0.00000
 Mulliken charges with hydrogens summed into heavy atoms:
               1
     1  N   -0.199646
     2  C    0.077897
     3  C    0.137438
     4  C   -0.223004
     5  C    0.137438
     6  C    0.077897
    12  N   -0.333848
    13  C   -0.011766
    14  C    0.260421
    15  C   -0.048446
    16  C   -0.005951
    17  C    0.131569
 Electronic spatial extent (au):  <R**2>=           2129.7376
 Charge=             -0.0000 electrons
 Dipole moment (field-independent basis, Debye):
    X=             -0.8658    Y=             -0.0330    Z=             -0.0000  Tot=              0.8664
 Quadrupole moment (field-independent basis, Debye-Ang):
   XX=            -68.7817   YY=            -72.5546   ZZ=            -66.7788
   XY=              9.7733   XZ=              0.0000   YZ=              0.0000
 Traceless Quadrupole moment (field-independent basis, Debye-Ang):
   XX=              0.5900   YY=             -3.1829   ZZ=              2.5929
   XY=              9.7733   XZ=              0.0000   YZ=              0.0000
 Octapole moment (field-independent basis, Debye-Ang**2):
  XXX=             44.7838  YYY=             -0.4048  ZZZ=              0.0000  XYY=             -2.6448
  XXY=             -0.8200  XXZ=              0.0000  XZZ=            -19.9814  YZZ=              0.4449
  YYZ=             -0.0000  XYZ=              0.0000
 Hexadecapole moment (field-independent basis, Debye-Ang**3):
 XXXX=          -2020.2965 YYYY=           -570.7030 ZZZZ=           -290.0974 XXXY=             11.3601
 XXXZ=              0.0000 YYYX=             57.3564 YYYZ=              0.0000 ZZZX=             -0.0000
 ZZZY=              0.0000 XXYY=           -445.9794 XXZZ=           -400.4552 YYZZ=           -137.3728
 XXYZ=             -0.0000 YYXZ=              0.0000 ZZXY=             -9.5449
 N-N= 6.317401837690D+02 E-N=-2.416775255736D+03  KE= 4.944818039442D+02
 PrsmSu:  requested number of processors reduced to:  18 ShMem   1 Linda.
 No NMR shielding tensors so no spin-rotation constants.
 Leave Link  601 at Sun Apr 18 11:12:37 2021, MaxMem=   104857600 cpu:            1228.4 elap:              26.7
 (Enter /s/ls4/users/knvvv/bin/g16sse/l9999.exe)

 Test job not archived.
 1\1\GINC-N152\Stability\RM062X\Gen\C10H10N2\KNVVV\18-Apr-2021\0\\#P M0
 62X/GEN Integral=UltraFineGrid SCF=NoSymm Stable=(RExt, Opt) IOp(1/33=
 1)\\Database calculations.\\0,1\N,0,1.398038,0.,0.\C,0,0.698537,1.1401
 3,0.\C,0,-0.694182,1.19534,0.\C,0,-1.406747,0.,0.\C,0,-0.694182,-1.195
 34,0.\C,0,0.698537,-1.14013,0.\H,0,1.281669,2.056885,0.\H,0,-1.199925,
 2.152548,0.\H,0,-2.488547,0.,0.\H,0,-1.199925,-2.152548,0.\H,0,1.28166
 9,-2.056885,0.\N,0,-1.398038,0.,4.1\C,0,-0.698537,0.,5.24013\C,0,0.694
 182,0.,5.29534\C,0,1.406747,0.,4.1\C,0,0.694182,0.,2.90466\C,0,-0.6985
 37,0.,2.95987\H,0,-1.281669,0.,6.156885\H,0,1.199925,0.,6.252548\H,0,2
 .488547,0.,4.1\H,0,1.199925,0.,1.947452\H,0,-1.281669,0.,2.043115\\Ver
 sion=ES64L-G16RevA.03\State=1-A'\HF=-496.5568617\RMSD=5.178e-09\Dipole
 =-0.0130006,0.,-0.3406165\Quadrupole=-2.366426,1.9277642,0.4386618,0.,
 7.2662223,0.\PG=CS [SG(C6H6N2),X(C4H4)]\\@


 IF MATHEMATICALLY YOU END UP WITH THE INCORRECT ANSWER,
 TRY MULTIPLYING BY THE PAGE NUMBER.
 Job cpu time:       6 days 17 hours 16 minutes 42.1 seconds.
 Elapsed time:       0 days  9 hours 32 minutes  5.2 seconds.
 File lengths (MBytes):  RWF=   2118 Int=      0 D2E=      0 Chk=    132 Scr=      1
 Normal termination of Gaussian 16 at Sun Apr 18 11:12:37 2021.
