 Entering Gaussian System, Link 0=/s/ls4/users/knvvv/bin/g16sse/g16
 Input=data/database/M062X--def2-QZVPPD--22_C4H10_Platonic24.gjf
 Output=data/database/M062X--def2-QZVPPD--22_C4H10_Platonic24.log
 Initial command:
 /s/ls4/users/knvvv/bin/g16sse/l1.exe "/s/ls4/users/knvvv/bin/scratch/Gau-18650.inp" -scrdir="/s/ls4/users/knvvv/bin/scratch/"
 Entering Link 1 = /s/ls4/users/knvvv/bin/g16sse/l1.exe PID=     18651.
  
 Copyright (c) 1988,1990,1992,1993,1995,1998,2003,2009,2016,
            Gaussian, Inc.  All Rights Reserved.
  
 This is part of the Gaussian(R) 16 program.  It is based on
 the Gaussian(R) 09 system (copyright 2009, Gaussian, Inc.),
 the Gaussian(R) 03 system (copyright 2003, Gaussian, Inc.),
 the Gaussian(R) 98 system (copyright 1998, Gaussian, Inc.),
 the Gaussian(R) 94 system (copyright 1995, Gaussian, Inc.),
 the Gaussian 92(TM) system (copyright 1992, Gaussian, Inc.),
 the Gaussian 90(TM) system (copyright 1990, Gaussian, Inc.),
 the Gaussian 88(TM) system (copyright 1988, Gaussian, Inc.),
 the Gaussian 86(TM) system (copyright 1986, Carnegie Mellon
 University), and the Gaussian 82(TM) system (copyright 1983,
 Carnegie Mellon University). Gaussian is a federally registered
 trademark of Gaussian, Inc.
  
 This software contains proprietary and confidential information,
 including trade secrets, belonging to Gaussian, Inc.
  
 This software is provided under written license and may be
 used, copied, transmitted, or stored only in accord with that
 written license.
  
 The following legend is applicable only to US Government
 contracts under FAR:
  
                    RESTRICTED RIGHTS LEGEND
  
 Use, reproduction and disclosure by the US Government is
 subject to restrictions as set forth in subparagraphs (a)
 and (c) of the Commercial Computer Software - Restricted
 Rights clause in FAR 52.227-19.
  
 Gaussian, Inc.
 340 Quinnipiac St., Bldg. 40, Wallingford CT 06492
  
  
 ---------------------------------------------------------------
 Warning -- This program may not be used in any manner that
 competes with the business of Gaussian, Inc. or will provide
 assistance to any competitor of Gaussian, Inc.  The licensee
 of this program is prohibited from giving any competitor of
 Gaussian, Inc. access to this program.  By using this program,
 the user acknowledges that Gaussian, Inc. is engaged in the
 business of creating and licensing software in the field of
 computational chemistry and represents and warrants to the
 licensee that it is not a competitor of Gaussian, Inc. and that
 it will not use this program in any manner prohibited above.
 ---------------------------------------------------------------
  

 Cite this work as:
 Gaussian 16, Revision A.03,
 M. J. Frisch, G. W. Trucks, H. B. Schlegel, G. E. Scuseria, 
 M. A. Robb, J. R. Cheeseman, G. Scalmani, V. Barone, 
 G. A. Petersson, H. Nakatsuji, X. Li, M. Caricato, A. V. Marenich, 
 J. Bloino, B. G. Janesko, R. Gomperts, B. Mennucci, H. P. Hratchian, 
 J. V. Ortiz, A. F. Izmaylov, J. L. Sonnenberg, D. Williams-Young, 
 F. Ding, F. Lipparini, F. Egidi, J. Goings, B. Peng, A. Petrone, 
 T. Henderson, D. Ranasinghe, V. G. Zakrzewski, J. Gao, N. Rega, 
 G. Zheng, W. Liang, M. Hada, M. Ehara, K. Toyota, R. Fukuda, 
 J. Hasegawa, M. Ishida, T. Nakajima, Y. Honda, O. Kitao, H. Nakai, 
 T. Vreven, K. Throssell, J. A. Montgomery, Jr., J. E. Peralta, 
 F. Ogliaro, M. J. Bearpark, J. J. Heyd, E. N. Brothers, K. N. Kudin, 
 V. N. Staroverov, T. A. Keith, R. Kobayashi, J. Normand, 
 K. Raghavachari, A. P. Rendell, J. C. Burant, S. S. Iyengar, 
 J. Tomasi, M. Cossi, J. M. Millam, M. Klene, C. Adamo, R. Cammi, 
 J. W. Ochterski, R. L. Martin, K. Morokuma, O. Farkas, 
 J. B. Foresman, and D. J. Fox, Gaussian, Inc., Wallingford CT, 2016.
 
 ******************************************
 Gaussian 16:  ES64L-G16RevA.03 25-Dec-2016
                17-Apr-2021 
 ******************************************
 %RWF=temp8_33805,70GB
 %nprocshared=48
 Will use up to   48 processors via shared memory.
 Default route: MaxDisk=80GB
 ----------------------------------------------------------------------
 #P M062X/GEN Integral=UltraFineGrid SCF=NoSymm Stable=(RExt, Opt) IOp(
 1/33=1)
 ----------------------------------------------------------------------
 1/33=1,38=1,172=1/1;
 2/12=2,17=6,18=5,40=1/2;
 3/5=7,11=2,25=1,30=1,74=-55,75=-5/1,2,3;
 4/9=2/1;
 5/5=2,38=5/2;
 6/7=2,8=2,9=2,10=2,28=1/1;
 8/6=1,10=90,11=11/1;
 9/8=-3,42=1,46=1/14;
 5/5=2,8=3,17=40,38=5/8(-2);
 6/7=2,8=2,9=2,10=2,28=1/1;
 99/5=1,9=1/99;
 Leave Link    1 at Sat Apr 17 20:23:58 2021, MaxMem=           0 cpu:              10.8 elap:               0.2
 (Enter /s/ls4/users/knvvv/bin/g16sse/l101.exe)
 ONIOM data not found on unit 2.
 ----------------------
 Database calculations.
 ----------------------
 TstMul:  ICh=     0
 TstMul:  Mul=     1
 TstMul:  ICh=     0
 TstMul:  Mul=     1
 Symbolic Z-matrix:
 Charge =  0 Multiplicity = 1
 C                     0.        0.        0.37368 
 H                     0.        0.        1.4688 
 C                     0.        1.45503  -0.09559 
 C                     1.26009  -0.72751  -0.09559 
 C                    -1.26009  -0.72751  -0.09559 
 H                     0.        1.50701  -1.18737 
 H                     1.30511  -0.75351  -1.18737 
 H                    -1.30511  -0.75351  -1.18737 
 H                     0.88261   1.98806   0.26197 
 H                    -0.88261   1.98806   0.26197 
 H                     1.2804   -1.75839   0.26197 
 H                     2.16301  -0.22967   0.26197 
 H                    -2.16301  -0.22967   0.26197 
 H                    -1.2804   -1.75839   0.26197 
 
 RdStrC is calling ZToCFu for IStruc=1 NZ=    14.
 PrtBox:  NBox=     2 Levels=  1 BoxLen=    8.00 SMaxX=        8.17
          Shift=            4.087497            3.322870            2.243800
 Box      1 Number                   0 centers from      1 to     13:
 Box      2 Number                   4 centers from     14 to     14:
 After GenITR:
 ITRead=  0  0  0  0  0  0  0  0  0  0  0  0  0  0
 MicOpt= -1 -1 -1 -1 -1 -1 -1 -1 -1 -1 -1 -1 -1 -1
 ITRead=  0  0  0  0  0  0  0  0  0  0  0  0  0  0
 MicOpt= -1 -1 -1 -1 -1 -1 -1 -1 -1 -1 -1 -1 -1 -1
 NAtoms=     14 NQM=       14 NQMF=       0 NMMI=      0 NMMIF=      0
                NMic=       0 NMicF=      0.
                    Isotopes and Nuclear Properties:
 (Nuclear quadrupole moments (NQMom) in fm**2, nuclear magnetic moments (NMagM)
  in nuclear magnetons)

  Atom         1           2           3           4           5           6           7           8           9          10
 IAtWgt=          12           1          12          12          12           1           1           1           1           1
 AtmWgt=  12.0000000   1.0078250  12.0000000  12.0000000  12.0000000   1.0078250   1.0078250   1.0078250   1.0078250   1.0078250
 NucSpn=           0           1           0           0           0           1           1           1           1           1
 AtZEff=  -0.0000000  -0.0000000  -0.0000000  -0.0000000  -0.0000000  -0.0000000  -0.0000000  -0.0000000  -0.0000000  -0.0000000
 NQMom=    0.0000000   0.0000000   0.0000000   0.0000000   0.0000000   0.0000000   0.0000000   0.0000000   0.0000000   0.0000000
 NMagM=    0.0000000   2.7928460   0.0000000   0.0000000   0.0000000   2.7928460   2.7928460   2.7928460   2.7928460   2.7928460
 AtZNuc=   6.0000000   1.0000000   6.0000000   6.0000000   6.0000000   1.0000000   1.0000000   1.0000000   1.0000000   1.0000000

  Atom        11          12          13          14
 IAtWgt=           1           1           1           1
 AtmWgt=   1.0078250   1.0078250   1.0078250   1.0078250
 NucSpn=           1           1           1           1
 AtZEff=  -0.0000000  -0.0000000  -0.0000000  -0.0000000
 NQMom=    0.0000000   0.0000000   0.0000000   0.0000000
 NMagM=    2.7928460   2.7928460   2.7928460   2.7928460
 AtZNuc=   1.0000000   1.0000000   1.0000000   1.0000000
 No MM parameters found.
 Leave Link  101 at Sat Apr 17 20:23:59 2021, MaxMem=   104857600 cpu:               7.0 elap:               0.2
 (Enter /s/ls4/users/knvvv/bin/g16sse/l202.exe)
                          Input orientation:                          
 ---------------------------------------------------------------------
 Center     Atomic      Atomic             Coordinates (Angstroms)
 Number     Number       Type             X           Y           Z
 ---------------------------------------------------------------------
      1          6           0        0.000000    0.000000    0.373683
      2          1           0        0.000000    0.000000    1.468801
      3          6           0        0.000000    1.455026   -0.095588
      4          6           0        1.260090   -0.727513   -0.095588
      5          6           0       -1.260090   -0.727513   -0.095588
      6          1           0        0.000000    1.507011   -1.187368
      7          1           0        1.305110   -0.753505   -1.187368
      8          1           0       -1.305110   -0.753505   -1.187368
      9          1           0        0.882607    1.988055    0.261965
     10          1           0       -0.882607    1.988055    0.261965
     11          1           0        1.280403   -1.758387    0.261965
     12          1           0        2.163010   -0.229668    0.261965
     13          1           0       -2.163010   -0.229668    0.261965
     14          1           0       -1.280403   -1.758387    0.261965
 ---------------------------------------------------------------------
                    Distance matrix (angstroms):
                    1          2          3          4          5
     1  C    0.000000
     2  H    1.095118   0.000000
     3  C    1.528828   2.136449   0.000000
     4  C    1.528829   2.136449   2.520179   0.000000
     5  C    1.528829   2.136449   2.520179   2.520180   0.000000
     6  H    2.169784   3.053902   1.093017   2.787994   2.787994
     7  H    2.169784   3.053902   2.787993   1.093017   2.787994
     8  H    2.169784   3.053902   2.787993   2.787994   1.093017
     9  H    2.178036   2.487531   1.091311   2.764895   3.477543
    10  H    2.178036   2.487531   1.091311   3.477543   2.764895
    11  H    2.178035   2.487531   3.477542   1.091310   2.764896
    12  H    2.178036   2.487531   2.764896   1.091310   3.477543
    13  H    2.178036   2.487531   2.764896   3.477543   1.091310
    14  H    2.178035   2.487531   3.477542   2.764896   1.091310
                    6          7          8          9         10
     6  H    0.000000
     7  H    2.610219   0.000000
     8  H    2.610219   2.610220   0.000000
     9  H    1.763793   3.129733   3.795105   0.000000
    10  H    1.763793   3.795105   3.129733   1.765214   0.000000
    11  H    3.795105   1.763793   3.129733   3.767502   4.326019
    12  H    3.129734   1.763792   3.795106   2.560806   3.767503
    13  H    3.129734   3.795106   1.763792   3.767503   2.560806
    14  H    3.795105   3.129733   1.763793   4.326019   3.767502
                   11         12         13         14
    11  H    0.000000
    12  H    1.765213   0.000000
    13  H    3.767502   4.326020   0.000000
    14  H    2.560806   3.767502   1.765213   0.000000
 Stoichiometry    C4H10
 Framework group  C3V[C3(CH),3SGV(CH),X(H6)]
 Deg. of freedom     8
 Full point group                 C3V     NOp   6
 Largest Abelian subgroup         CS      NOp   2
 Largest concise Abelian subgroup CS      NOp   2
                         Standard orientation:                         
 ---------------------------------------------------------------------
 Center     Atomic      Atomic             Coordinates (Angstroms)
 Number     Number       Type             X           Y           Z
 ---------------------------------------------------------------------
      1          6           0        0.000000   -0.000000    0.373683
      2          1           0        0.000000   -0.000000    1.468801
      3          6           0        0.000000    1.455026   -0.095588
      4          6           0        1.260089   -0.727513   -0.095588
      5          6           0       -1.260089   -0.727513   -0.095588
      6          1           0        0.000000    1.507011   -1.187368
      7          1           0        1.305110   -0.753505   -1.187368
      8          1           0       -1.305110   -0.753505   -1.187368
      9          1           0        0.882607    1.988055    0.261965
     10          1           0       -0.882607    1.988055    0.261965
     11          1           0        1.280403   -1.758388    0.261965
     12          1           0        2.163010   -0.229667    0.261965
     13          1           0       -2.163010   -0.229667    0.261965
     14          1           0       -1.280403   -1.758388    0.261965
 ---------------------------------------------------------------------
 Rotational constants (GHZ):           7.8113444           7.8113444           4.5247368
 Leave Link  202 at Sat Apr 17 20:23:59 2021, MaxMem=   104857600 cpu:              11.2 elap:               0.3
 (Enter /s/ls4/users/knvvv/bin/g16sse/l301.exe)
 General basis read from cards:  (5D, 7F)
 Centers:       2      6      7      8      9     10     11     12     13     14
 S 4 1.00
     Exponent=  1.9069169000D+02 Coefficients=  7.0815167000D-04
     Exponent=  2.8605532000D+01 Coefficients=  5.4678827000D-03
     Exponent=  6.5095943000D+00 Coefficients=  2.7966605000D-02
     Exponent=  1.8412455000D+00 Coefficients=  1.0764538000D-01
 S 1 1.00
     Exponent=  5.9853725000D-01 Coefficients=  1.0000000000D+00
 S 1 1.00
     Exponent=  2.1397624000D-01 Coefficients=  1.0000000000D+00
 S 1 1.00
     Exponent=  8.0316286000D-02 Coefficients=  1.0000000000D+00
 P 1 1.00
     Exponent=  2.2920000000D+00 Coefficients=  1.0000000000D+00
 P 1 1.00
     Exponent=  8.3800000000D-01 Coefficients=  1.0000000000D+00
 P 1 1.00
     Exponent=  2.9200000000D-01 Coefficients=  1.0000000000D+00
 P 1 1.00
     Exponent=  8.4063199228D-02 Coefficients=  1.0000000000D+00
 D 1 1.00
     Exponent=  2.0620000000D+00 Coefficients=  1.0000000000D+00
 D 1 1.00
     Exponent=  6.6200000000D-01 Coefficients=  1.0000000000D+00
 F 1 1.00
     Exponent=  1.3970000000D+00 Coefficients=  1.0000000000D+00
 ****
 Centers:       1      3      4      5
 S 8 1.00
     Exponent=  6.7025071029D+04 Coefficients=  3.8736308501D-05
     Exponent=  1.0039986538D+04 Coefficients=  3.0107917575D-04
     Exponent=  2.2849316911D+03 Coefficients=  1.5787918095D-03
     Exponent=  6.4714122130D+02 Coefficients=  6.6087087195D-03
     Exponent=  2.1109472335D+02 Coefficients=  2.3367123250D-02
     Exponent=  7.6177643862D+01 Coefficients=  7.0420716898D-02
     Exponent=  2.9633839163D+01 Coefficients=  1.7360344953D-01
     Exponent=  1.2187785081D+01 Coefficients=  3.2292305648D-01
 S 2 1.00
     Exponent=  5.3026006299D+01 Coefficients=  7.4897404492D-02
     Exponent=  1.5258502776D+01 Coefficients=  7.6136220983D-01
 S 1 1.00
     Exponent=  5.2403957464D+00 Coefficients=  1.0000000000D+00
 S 1 1.00
     Exponent=  2.2905022379D+00 Coefficients=  1.0000000000D+00
 S 1 1.00
     Exponent=  6.9673283006D-01 Coefficients=  1.0000000000D+00
 S 1 1.00
     Exponent=  2.7599337363D-01 Coefficients=  1.0000000000D+00
 S 1 1.00
     Exponent=  1.0739884389D-01 Coefficients=  1.0000000000D+00
 S 1 1.00
     Exponent=  4.4981404899D-02 Coefficients=  1.0000000000D+00
 P 5 1.00
     Exponent=  1.0512555082D+02 Coefficients=  8.4647553844D-04
     Exponent=  2.4884461066D+01 Coefficients=  6.6274038534D-03
     Exponent=  7.8637230826D+00 Coefficients=  3.0120390419D-02
     Exponent=  2.8407001835D+00 Coefficients=  9.9951435476D-02
     Exponent=  1.1227137335D+00 Coefficients=  2.3826299282D-01
 P 1 1.00
     Exponent=  4.6050725555D-01 Coefficients=  1.0000000000D+00
 P 1 1.00
     Exponent=  1.8937530913D-01 Coefficients=  1.0000000000D+00
 P 1 1.00
     Exponent=  7.5983791611D-02 Coefficients=  1.0000000000D+00
 D 1 1.00
     Exponent=  1.8480000000D+00 Coefficients=  1.0000000000D+00
 D 1 1.00
     Exponent=  6.4900000000D-01 Coefficients=  1.0000000000D+00
 D 1 1.00
     Exponent=  2.2800000000D-01 Coefficients=  1.0000000000D+00
 D 1 1.00
     Exponent=  7.6889830417D-02 Coefficients=  1.0000000000D+00
 F 1 1.00
     Exponent=  1.4190000000D+00 Coefficients=  1.0000000000D+00
 F 1 1.00
     Exponent=  4.8500000000D-01 Coefficients=  1.0000000000D+00
 G 1 1.00
     Exponent=  1.0110000000D+00 Coefficients=  1.0000000000D+00
 ****
 Ernie: Thresh=  0.10000D-02 Tol=  0.10000D-05 Strict=F.
 There are   389 symmetry adapted cartesian basis functions of A'  symmetry.
 There are   307 symmetry adapted cartesian basis functions of A"  symmetry.
 There are   321 symmetry adapted basis functions of A'  symmetry.
 There are   261 symmetry adapted basis functions of A"  symmetry.
   582 basis functions,   806 primitive gaussians,   696 cartesian basis functions
    17 alpha electrons       17 beta electrons
       nuclear repulsion energy       134.7108377041 Hartrees.
 IExCor= 4336 DFT=T Ex+Corr=M062X ExCW=0 ScaHFX=  0.540000
 ScaDFX=  1.000000  1.000000  1.000000  1.000000 ScalE2=  1.000000  1.000000
 IRadAn=      5 IRanWt=     -1 IRanGd=            0 ICorTp=0 IEmpDi=  4
 NAtoms=   14 NActive=   14 NUniq=    5 SFac= 4.00D+00 NAtFMM=   60 NAOKFM=F Big=F
 Integral buffers will be    131072 words long.
 Raffenetti 2 integral format.
 Two-electron integral symmetry is turned on.
 Leave Link  301 at Sat Apr 17 20:23:59 2021, MaxMem=   104857600 cpu:               9.1 elap:               0.2
 (Enter /s/ls4/users/knvvv/bin/g16sse/l302.exe)
 NPDir=0 NMtPBC=     1 NCelOv=     1 NCel=       1 NClECP=     1 NCelD=      1
         NCelK=      1 NCelE2=     1 NClLst=     1 CellRange=     0.0.
 One-electron integrals computed using PRISM.
 One-electron integral symmetry used in STVInt
 PrsmSu:  requested number of processors reduced to:   4 ShMem   1 Linda.
 PrsmSu:  requested number of processors reduced to:  19 ShMem   1 Linda.
 NBasis=   582 RedAO= T EigKep=  1.04D-05  NBF=   321   261
 NBsUse=   573 1.00D-06 EigRej=  5.42D-07 NBFU=   316   257
 Precomputing XC quadrature grid using
 IXCGrd= 4 IRadAn=           5 IRanWt=          -1 IRanGd=           0 AccXCQ= 0.00D+00.
 Generated NRdTot=       0 NPtTot=           0 NUsed=           0 NTot=          32
 NSgBfM=   696   696   696   696   696 MxSgAt=    14 MxSgA2=    14.
 Leave Link  302 at Sat Apr 17 20:24:26 2021, MaxMem=   104857600 cpu:            1273.8 elap:              27.2
 (Enter /s/ls4/users/knvvv/bin/g16sse/l303.exe)
 DipDrv:  MaxL=1.
 Leave Link  303 at Sat Apr 17 20:24:29 2021, MaxMem=   104857600 cpu:             145.5 elap:               3.1
 (Enter /s/ls4/users/knvvv/bin/g16sse/l401.exe)
 SCF N**3 symmetry information disabled.
 ExpMin= 4.50D-02 ExpMax= 6.70D+04 ExpMxC= 6.47D+02 IAcc=3 IRadAn=         5 AccDes= 0.00D+00
 Harris functional with IExCor= 1009 and IRadAn=       5 diagonalized for initial guess.
 HarFok:  IExCor= 1009 AccDes= 0.00D+00 IRadAn=         5 IDoV= 1 UseB2=F ITyADJ=14
 ICtDFT=  3500011 ScaDFX=  1.000000  1.000000  1.000000  1.000000
 FoFCou: FMM=F IPFlag=           0 FMFlag=      100000 FMFlg1=           0
         NFxFlg=           0 DoJE=T BraDBF=F KetDBF=T FulRan=T
         wScrn=  0.000000 ICntrl=       500 IOpCl=  0 I1Cent=   200000004 NGrid=           0
         NMat0=    1 NMatS0=      1 NMatT0=    0 NMatD0=    1 NMtDS0=    0 NMtDT0=    0
 Petite list used in FoFCou.
 CoulSu:  requested number of processors reduced to:  18 ShMem   1 Linda.
 CoulSu:  requested number of processors reduced to:  18 ShMem   1 Linda.
 CoulSu:  requested number of processors reduced to:  21 ShMem   1 Linda.
 CoulSu:  requested number of processors reduced to:  21 ShMem   1 Linda.
 Harris En= -158.465747510558    
 JPrj=0 DoOrth=F DoCkMO=F.
 Initial guess orbital symmetries:
       Occupied  (A1) (E) (E) (A1) (A1) (E) (E) (A1) (A1) (E) (E)
                 (E) (E) (A2) (E) (E) (A1)
       Virtual   (A1) (A1) (E) (E) (A1) (E) (E) (A1) (E) (E) (E)
                 (E) (A2) (E) (E) (E) (E) (A1) (A1) (E) (E) (A1)
                 (E) (E) (A1) (A2) (A1) (E) (E) (A1) (E) (E) (E)
                 (E) (E) (E) (A1) (A2) (E) (E) (A1) (E) (E) (E)
                 (E) (A2) (A1) (E) (E) (A1) (A1) (E) (E) (E) (E)
                 (E) (E) (A1) (A2) (E) (E) (A2) (A1) (E) (E) (A1)
                 (E) (E) (A2) (A1) (E) (E) (A1) (E) (E) (E) (E)
                 (E) (E) (A2) (E) (E) (A1) (E) (E) (E) (E) (A1)
                 (A1) (A2) (E) (E) (A1) (E) (E) (E) (E) (A1) (E)
                 (E) (A2) (A1) (E) (E) (A2) (A2) (E) (E) (E) (E)
                 (A1) (E) (E) (A1) (E) (E) (A1) (E) (E) (E) (E)
                 (A1) (A1) (E) (E) (A1) (E) (E) (E) (E) (A2) (A2)
                 (E) (E) (A1) (E) (E) (E) (E) (A2) (A1) (E) (E)
                 (E) (E) (A1) (E) (E) (A1) (A2) (E) (E) (E) (E)
                 (A1) (A1) (E) (E) (E) (E) (A2) (A1) (A1) (E) (E)
                 (E) (E) (A2) (A1) (E) (E) (A1) (E) (E) (A2) (E)
                 (E) (A1) (E) (E) (E) (E) (A1) (E) (E) (A2) (A1)
                 (E) (E) (E) (E) (A2) (E) (E) (A2) (A1) (E) (E)
                 (A1) (A2) (E) (E) (E) (E) (A1) (E) (E) (A1) (E)
                 (E) (A1) (A2) (E) (E) (E) (E) (E) (E) (A1) (E)
                 (E) (E) (E) (E) (E) (A1) (A2) (E) (E) (E) (E)
                 (A1) (E) (E) (A2) (E) (E) (A1) (E) (E) (A1) (A2)
                 (E) (E) (E) (E) (A2) (A1) (A2) (E) (E) (E) (E)
                 (A1) (A1) (E) (E) (A1) (E) (E) (A2) (E) (E) (A1)
                 (A1) (E) (E) (E) (E) (A1) (A2) (E) (E) (E) (E)
                 (A1) (E) (E) (E) (E) (A1) (E) (E) (A2) (E) (E)
                 (A2) (A1) (E) (E) (A1) (E) (E) (A1) (A2) (E) (E)
                 (E) (E) (A1) (A2) (E) (E) (E) (E) (A1) (A2) (A1)
                 (E) (E) (E) (E) (A2) (E) (E) (E) (E) (A1) (A1)
                 (E) (E) (A2) (A1) (E) (E) (E) (E) (E) (E) (A2)
                 (A1) (E) (E) (A2) (A1) (E) (E) (E) (E) (A2) (E)
                 (E) (E) (E) (A1) (A1) (E) (E) (A2) (E) (E) (E)
                 (E) (A1) (A2) (A2) (E) (E) (A1) (E) (E) (A1) (E)
                 (E) (E) (E) (A2) (A1) (E) (E) (A1) (E) (E) (E)
                 (E) (E) (E) (A1) (E) (E) (A2) (A1) (A1) (E) (E)
                 (A2) (E) (E) (A1) (E) (E) (A1) (E) (E) (A2) (E)
                 (E) (A2) (A1) (E) (E) (A1) (E) (E) (A2) (E) (E)
                 (A1) (E) (E) (E) (E) (A1) (E) (E) (A2) (A1) (E)
                 (E) (E) (E) (A1) (A2) (E) (E) (E) (E) (A1) (A2)
                 (E) (E) (E) (E) (E) (E) (E) (E) (A1) (A2) (A1)
                 (E) (E) (E) (E) (A1) (E) (E) (E) (E) (A2) (A1)
                 (A2) (A1) (E) (E) (E) (E) (A1) (E) (E) (E) (E)
                 (A2) (E) (E) (A1) (A2) (E) (E) (E) (E) (A1) (A2)
                 (A1) (E) (E) (E) (E) (E) (E) (A2) (E) (E) (A1)
                 (A1) (E) (E) (E) (E) (A1) (A2) (E) (E) (E) (E)
                 (A2) (A1) (A2) (E) (E) (E) (E) (E) (E) (A1) (E)
                 (E) (A1) (E) (E) (A1) (A2) (E) (E) (E) (E) (A2)
                 (E) (E) (A1) (E) (E) (A1) (E) (E) (A1) (A1) (E)
                 (E) (E) (E) (E) (E) (A1) (A2) (E) (E) (A2) (A1)
                 (E) (E) (A2) (E) (E) (A1) (A1) (E) (E) (A1) (A1)
                 (E) (E) (A1) (A1) (E) (E)
 The electronic state of the initial guess is 1-A1.
 Leave Link  401 at Sat Apr 17 20:24:32 2021, MaxMem=   104857600 cpu:             101.3 elap:               2.4
 (Enter /s/ls4/users/knvvv/bin/g16sse/l502.exe)
 Integral symmetry usage will be decided dynamically.
 Closed shell SCF:
 Using DIIS extrapolation, IDIIS=  1040.
 NGot=   104857600 LenX=   103847602 LenY=   103362490
 Requested convergence on RMS density matrix=1.00D-08 within 128 cycles.
 Requested convergence on MAX density matrix=1.00D-06.
 Requested convergence on             energy=1.00D-06.
 No special actions if energy rises.
 Fock matrices will be formed incrementally for  20 cycles.

 Cycle   1  Pass 1  IDiag  1:
 FoFJK:  IHMeth= 1 ICntrl=       0 DoSepK=F KAlg= 0 I1Cent=           0 FoldK=F
 IRaf= 980000000 NMat=       1 IRICut=       1 DoRegI=T DoRafI=F ISym2E= 1 IDoP0=0 IntGTp=1.
 FoFCou: FMM=F IPFlag=           0 FMFlag=      100000 FMFlg1=           0
         NFxFlg=           0 DoJE=F BraDBF=F KetDBF=F FulRan=T
         wScrn=  0.000000 ICntrl=         0 IOpCl=  0 I1Cent=           0 NGrid=           0
         NMat0=    1 NMatS0=      1 NMatT0=    0 NMatD0=    1 NMtDS0=    0 NMtDT0=    0
 Petite list used in FoFCou.
 CoulSu:  requested number of processors reduced to:  19 ShMem   1 Linda.
 E= -158.204826060356    
 DIIS: error= 3.53D-02 at cycle   1 NSaved=   1.
 NSaved= 1 IEnMin= 1 EnMin= -158.204826060356     IErMin= 1 ErrMin= 3.53D-02
 ErrMax= 3.53D-02  0.00D+00 EMaxC= 1.00D-01 BMatC= 3.04D-01 BMatP= 3.04D-01
 IDIUse=3 WtCom= 6.47D-01 WtEn= 3.53D-01
 Coeff-Com:  0.100D+01
 Coeff-En:   0.100D+01
 Coeff:      0.100D+01
 Gap=     0.331 Goal=   None    Shift=    0.000
 GapD=    0.331 DampG=1.000 DampE=0.500 DampFc=0.5000 IDamp=-1.
 Damping current iteration by 5.00D-01
 RMSDP=9.54D-04 MaxDP=4.50D-02              OVMax= 1.66D-01

 Cycle   2  Pass 1  IDiag  1:
 RMSU=  4.51D-04    CP:  9.45D-01
 CoulSu:  requested number of processors reduced to:  19 ShMem   1 Linda.
 E= -158.323711216817     Delta-E=       -0.118885156461 Rises=F Damp=T
 DIIS: error= 1.19D-02 at cycle   2 NSaved=   2.
 NSaved= 2 IEnMin= 2 EnMin= -158.323711216817     IErMin= 2 ErrMin= 1.19D-02
 ErrMax= 1.19D-02  0.00D+00 EMaxC= 1.00D-01 BMatC= 2.71D-02 BMatP= 3.04D-01
 IDIUse=3 WtCom= 8.81D-01 WtEn= 1.19D-01
 Coeff-Com: -0.133D+00 0.113D+01
 Coeff-En:   0.000D+00 0.100D+01
 Coeff:     -0.117D+00 0.112D+01
 Gap=     0.415 Goal=   None    Shift=    0.000
 DSYEVD-2 returned Info=        1147 IAlg= 4 N=   573 NDim=   573 NE2=      180387 trying  DSYEV.
 RMSDP=1.06D-03 MaxDP=9.18D-02 DE=-1.19D-01 OVMax= 9.97D-02

 Cycle   3  Pass 1  IDiag  1:
 RMSU=  9.68D-04    CP:  9.49D-01  1.96D+00
 CoulSu:  requested number of processors reduced to:  19 ShMem   1 Linda.
 E= -158.436785475949     Delta-E=       -0.113074259132 Rises=F Damp=F
 DIIS: error= 5.02D-03 at cycle   3 NSaved=   3.
 NSaved= 3 IEnMin= 3 EnMin= -158.436785475949     IErMin= 3 ErrMin= 5.02D-03
 ErrMax= 5.02D-03  0.00D+00 EMaxC= 1.00D-01 BMatC= 2.84D-03 BMatP= 2.71D-02
 IDIUse=3 WtCom= 9.50D-01 WtEn= 5.02D-02
 Coeff-Com: -0.812D-01 0.241D+00 0.840D+00
 Coeff-En:   0.000D+00 0.000D+00 0.100D+01
 Coeff:     -0.772D-01 0.229D+00 0.848D+00
 Gap=     0.386 Goal=   None    Shift=    0.000
 DSYEVD-2 returned Info=        1147 IAlg= 4 N=   573 NDim=   573 NE2=      180387 trying  DSYEV.
 RMSDP=1.72D-04 MaxDP=1.65D-02 DE=-1.13D-01 OVMax= 1.47D-02

 Cycle   4  Pass 1  IDiag  1:
 RMSU=  1.19D-04    CP:  9.38D-01  1.99D+00  8.77D-01
 CoulSu:  requested number of processors reduced to:  19 ShMem   1 Linda.
 E= -158.439147396861     Delta-E=       -0.002361920911 Rises=F Damp=F
 DIIS: error= 1.65D-03 at cycle   4 NSaved=   4.
 NSaved= 4 IEnMin= 4 EnMin= -158.439147396861     IErMin= 4 ErrMin= 1.65D-03
 ErrMax= 1.65D-03  0.00D+00 EMaxC= 1.00D-01 BMatC= 4.87D-04 BMatP= 2.84D-03
 IDIUse=3 WtCom= 9.84D-01 WtEn= 1.65D-02
 Coeff-Com: -0.256D-01 0.608D-01 0.358D+00 0.607D+00
 Coeff-En:   0.000D+00 0.000D+00 0.684D-02 0.993D+00
 Coeff:     -0.251D-01 0.598D-01 0.352D+00 0.614D+00
 Gap=     0.390 Goal=   None    Shift=    0.000
 DSYEVD-2 returned Info=      165311 IAlg= 4 N=   573 NDim=   573 NE2=      180387 trying  DSYEV.
 RMSDP=4.42D-05 MaxDP=4.70D-03 DE=-2.36D-03 OVMax= 5.05D-03

 Cycle   5  Pass 1  IDiag  1:
 RMSU=  3.13D-05    CP:  9.36D-01  1.97D+00  8.50D-01  1.14D+00
 CoulSu:  requested number of processors reduced to:  19 ShMem   1 Linda.
 E= -158.439578081227     Delta-E=       -0.000430684366 Rises=F Damp=F
 DIIS: error= 1.87D-04 at cycle   5 NSaved=   5.
 NSaved= 5 IEnMin= 5 EnMin= -158.439578081227     IErMin= 5 ErrMin= 1.87D-04
 ErrMax= 1.87D-04  0.00D+00 EMaxC= 1.00D-01 BMatC= 1.32D-05 BMatP= 4.87D-04
 IDIUse=3 WtCom= 9.98D-01 WtEn= 1.87D-03
 Coeff-Com: -0.140D-03 0.329D-03 0.393D-01 0.168D+00 0.793D+00
 Coeff-En:   0.000D+00 0.000D+00 0.000D+00 0.000D+00 0.100D+01
 Coeff:     -0.139D-03 0.328D-03 0.392D-01 0.167D+00 0.793D+00
 Gap=     0.390 Goal=   None    Shift=    0.000
 DSYEVD-2 returned Info=        1147 IAlg= 4 N=   573 NDim=   573 NE2=      180387 trying  DSYEV.
 RMSDP=1.83D-05 MaxDP=2.04D-03 DE=-4.31D-04 OVMax= 8.14D-04

 Cycle   6  Pass 1  IDiag  1:
 RMSU=  7.15D-06    CP:  9.36D-01  1.97D+00  8.38D-01  1.23D+00  1.13D+00
 CoulSu:  requested number of processors reduced to:  19 ShMem   1 Linda.
 E= -158.439589130099     Delta-E=       -0.000011048872 Rises=F Damp=F
 DIIS: error= 4.83D-05 at cycle   6 NSaved=   6.
 NSaved= 6 IEnMin= 6 EnMin= -158.439589130099     IErMin= 6 ErrMin= 4.83D-05
 ErrMax= 4.83D-05  0.00D+00 EMaxC= 1.00D-01 BMatC= 4.44D-07 BMatP= 1.32D-05
 IDIUse=1 WtCom= 1.00D+00 WtEn= 0.00D+00
 Coeff-Com:  0.185D-02-0.416D-02-0.149D-01-0.236D-02 0.153D+00 0.866D+00
 Coeff:      0.185D-02-0.416D-02-0.149D-01-0.236D-02 0.153D+00 0.866D+00
 Gap=     0.390 Goal=   None    Shift=    0.000
 DSYEVD-2 returned Info=      165311 IAlg= 4 N=   573 NDim=   573 NE2=      180387 trying  DSYEV.
 RMSDP=3.65D-06 MaxDP=2.17D-04 DE=-1.10D-05 OVMax= 1.93D-04

 Cycle   7  Pass 1  IDiag  1:
 RMSU=  2.12D-06    CP:  9.36D-01  1.97D+00  8.37D-01  1.24D+00  1.16D+00
                    CP:  1.21D+00
 CoulSu:  requested number of processors reduced to:  19 ShMem   1 Linda.
 E= -158.439589580079     Delta-E=       -0.000000449980 Rises=F Damp=F
 DIIS: error= 1.37D-05 at cycle   7 NSaved=   7.
 NSaved= 7 IEnMin= 7 EnMin= -158.439589580079     IErMin= 7 ErrMin= 1.37D-05
 ErrMax= 1.37D-05  0.00D+00 EMaxC= 1.00D-01 BMatC= 2.10D-08 BMatP= 4.44D-07
 IDIUse=1 WtCom= 1.00D+00 WtEn= 0.00D+00
 Coeff-Com:  0.285D-03-0.745D-03-0.408D-02-0.724D-02-0.691D-02 0.157D+00
 Coeff-Com:  0.862D+00
 Coeff:      0.285D-03-0.745D-03-0.408D-02-0.724D-02-0.691D-02 0.157D+00
 Coeff:      0.862D+00
 Gap=     0.390 Goal=   None    Shift=    0.000
 DSYEVD-2 returned Info=        1147 IAlg= 4 N=   573 NDim=   573 NE2=      180387 trying  DSYEV.
 RMSDP=9.93D-07 MaxDP=1.55D-04 DE=-4.50D-07 OVMax= 4.84D-05

 Cycle   8  Pass 1  IDiag  1:
 RMSU=  5.02D-07    CP:  9.36D-01  1.97D+00  8.37D-01  1.25D+00  1.16D+00
                    CP:  1.27D+00  1.24D+00
 CoulSu:  requested number of processors reduced to:  19 ShMem   1 Linda.
 E= -158.439589604142     Delta-E=       -0.000000024062 Rises=F Damp=F
 DIIS: error= 2.55D-06 at cycle   8 NSaved=   8.
 NSaved= 8 IEnMin= 8 EnMin= -158.439589604142     IErMin= 8 ErrMin= 2.55D-06
 ErrMax= 2.55D-06  0.00D+00 EMaxC= 1.00D-01 BMatC= 8.07D-10 BMatP= 2.10D-08
 IDIUse=1 WtCom= 1.00D+00 WtEn= 0.00D+00
 Coeff-Com: -0.118D-03 0.239D-03 0.737D-03-0.139D-03-0.742D-02-0.467D-01
 Coeff-Com:  0.538D-01 0.100D+01
 Coeff:     -0.118D-03 0.239D-03 0.737D-03-0.139D-03-0.742D-02-0.467D-01
 Coeff:      0.538D-01 0.100D+01
 Gap=     0.390 Goal=   None    Shift=    0.000
 DSYEVD-2 returned Info=        1147 IAlg= 4 N=   573 NDim=   573 NE2=      180387 trying  DSYEV.
 RMSDP=2.76D-07 MaxDP=4.54D-05 DE=-2.41D-08 OVMax= 1.21D-05

 Cycle   9  Pass 1  IDiag  1:
 RMSU=  7.69D-08    CP:  9.36D-01  1.97D+00  8.37D-01  1.25D+00  1.16D+00
                    CP:  1.29D+00  1.31D+00  1.23D+00
 CoulSu:  requested number of processors reduced to:  19 ShMem   1 Linda.
 E= -158.439589605131     Delta-E=       -0.000000000989 Rises=F Damp=F
 DIIS: error= 1.16D-07 at cycle   9 NSaved=   9.
 NSaved= 9 IEnMin= 9 EnMin= -158.439589605131     IErMin= 9 ErrMin= 1.16D-07
 ErrMax= 1.16D-07  0.00D+00 EMaxC= 1.00D-01 BMatC= 6.42D-12 BMatP= 8.07D-10
 IDIUse=1 WtCom= 1.00D+00 WtEn= 0.00D+00
 Coeff-Com: -0.642D-05 0.200D-04 0.173D-04-0.103D-03-0.835D-03-0.365D-02
 Coeff-Com: -0.807D-03 0.640D-01 0.941D+00
 Coeff:     -0.642D-05 0.200D-04 0.173D-04-0.103D-03-0.835D-03-0.365D-02
 Coeff:     -0.807D-03 0.640D-01 0.941D+00
 Gap=     0.390 Goal=   None    Shift=    0.000
 DSYEVD-2 returned Info=      165311 IAlg= 4 N=   573 NDim=   573 NE2=      180387 trying  DSYEV.
 RMSDP=4.57D-08 MaxDP=5.19D-06 DE=-9.89D-10 OVMax= 9.34D-07

 Cycle  10  Pass 1  IDiag  1:
 RMSU=  1.27D-08    CP:  9.36D-01  1.97D+00  8.37D-01  1.25D+00  1.16D+00
                    CP:  1.29D+00  1.32D+00  1.22D+00  1.06D+00
 CoulSu:  requested number of processors reduced to:  19 ShMem   1 Linda.
 E= -158.439589605139     Delta-E=       -0.000000000008 Rises=F Damp=F
 DIIS: error= 1.86D-08 at cycle  10 NSaved=  10.
 NSaved=10 IEnMin=10 EnMin= -158.439589605139     IErMin=10 ErrMin= 1.86D-08
 ErrMax= 1.86D-08  0.00D+00 EMaxC= 1.00D-01 BMatC= 8.40D-14 BMatP= 6.42D-12
 IDIUse=1 WtCom= 1.00D+00 WtEn= 0.00D+00
 Coeff-Com:  0.820D-06-0.128D-05-0.414D-05-0.449D-05 0.463D-04 0.409D-03
 Coeff-Com: -0.375D-03-0.110D-01-0.468D-01 0.106D+01
 Coeff:      0.820D-06-0.128D-05-0.414D-05-0.449D-05 0.463D-04 0.409D-03
 Coeff:     -0.375D-03-0.110D-01-0.468D-01 0.106D+01
 Gap=     0.390 Goal=   None    Shift=    0.000
 DSYEVD-2 returned Info=        1147 IAlg= 4 N=   573 NDim=   573 NE2=      180387 trying  DSYEV.
 RMSDP=4.11D-09 MaxDP=3.50D-07 DE=-7.73D-12 OVMax= 2.28D-07

 SCF Done:  E(RM062X) =  -158.439589605     A.U. after   10 cycles
            NFock= 10  Conv=0.41D-08     -V/T= 2.0051
 KE= 1.576357464024D+02 PE=-6.354933944659D+02 EE= 1.847072207543D+02
 Leave Link  502 at Sat Apr 17 20:26:15 2021, MaxMem=   104857600 cpu:            3617.3 elap:             102.7
 (Enter /s/ls4/users/knvvv/bin/g16sse/l601.exe)
 Copying SCF densities to generalized density rwf, IOpCl= 0 IROHF=0.

 **********************************************************************

            Population analysis using the SCF density.

 **********************************************************************

 Orbital symmetries:
       Occupied  (A1) (E) (E) (A1) (A1) (E) (E) (A1) (A1) (E) (E)
                 (E) (E) (A2) (E) (E) (A1)
       Virtual   (A1) (E) (E) (A1) (A1) (E) (E) (E) (E) (A1) (E)
                 (E) (A2) (E) (E) (A1) (E) (E) (A1) (A1) (E) (E)
                 (A2) (A1) (E) (E) (A1) (E) (E) (A1) (E) (E) (E)
                 (E) (A1) (E) (E) (E) (E) (A1) (A2) (E) (E) (A2)
                 (E) (E) (E) (E) (E) (E) (A1) (E) (E) (A1) (A1)
                 (A2) (A1) (E) (E) (E) (E) (E) (E) (A2) (A2) (A1)
                 (E) (E) (A1) (E) (E) (E) (E) (A1) (E) (E) (E)
                 (E) (A1) (A2) (A1) (E) (E) (E) (E) (E) (E) (A1)
                 (A1) (A2) (E) (E) (A1) (E) (E) (E) (E) (E) (E)
                 (A1) (A2) (A1) (A2) (E) (E) (A2) (E) (E) (E) (E)
                 (A1) (E) (E) (A1) (E) (E) (A1) (E) (E) (E) (E)
                 (A1) (A1) (E) (E) (A1) (E) (E) (E) (E) (A2) (A1)
                 (E) (E) (A2) (E) (E) (E) (E) (A1) (E) (E) (A2)
                 (E) (E) (A1) (E) (E) (A2) (A1) (A1) (E) (E) (E)
                 (E) (A1) (E) (E) (E) (E) (A2) (A1) (A1) (E) (E)
                 (E) (E) (A2) (E) (E) (A1) (A1) (E) (E) (A2) (E)
                 (E) (A1) (E) (E) (E) (E) (A1) (A2) (A1) (E) (E)
                 (E) (E) (E) (E) (A2) (E) (E) (A1) (A2) (E) (E)
                 (A1) (A2) (E) (E) (E) (E) (A1) (E) (E) (A1) (E)
                 (E) (A1) (E) (E) (A2) (E) (E) (E) (E) (E) (E)
                 (A1) (E) (E) (E) (E) (A1) (A2) (E) (E) (E) (E)
                 (A2) (A1) (E) (E) (E) (E) (A1) (E) (E) (A1) (A2)
                 (E) (E) (E) (E) (A1) (A2) (A2) (E) (E) (E) (E)
                 (A1) (A1) (E) (E) (A1) (E) (E) (A2) (E) (E) (A1)
                 (E) (E) (A1) (E) (E) (A1) (A2) (E) (E) (E) (E)
                 (A1) (E) (E) (E) (E) (A1) (E) (E) (A2) (E) (E)
                 (A1) (A2) (E) (E) (A1) (E) (E) (A2) (A1) (E) (E)
                 (E) (E) (A1) (A2) (E) (E) (E) (E) (A1) (A2) (A1)
                 (E) (E) (E) (E) (E) (E) (A2) (E) (E) (A1) (A2)
                 (A1) (E) (E) (A1) (E) (E) (E) (E) (E) (E) (A2)
                 (A1) (E) (E) (A2) (E) (E) (A1) (E) (E) (A2) (E)
                 (E) (A1) (E) (E) (E) (E) (A1) (E) (E) (A2) (A1)
                 (E) (E) (A2) (A1) (A2) (E) (E) (E) (E) (A1) (E)
                 (E) (E) (E) (A2) (A1) (E) (E) (A1) (E) (E) (E)
                 (E) (E) (E) (A1) (A2) (E) (E) (A1) (A2) (A1) (E)
                 (E) (E) (E) (A1) (E) (E) (A2) (E) (E) (A2) (A1)
                 (E) (E) (A1) (E) (E) (E) (E) (A1) (A2) (E) (E)
                 (A1) (E) (E) (E) (E) (A1) (E) (E) (A2) (A1) (E)
                 (E) (E) (E) (A2) (E) (E) (E) (E) (A1) (A1) (A2)
                 (E) (E) (E) (E) (E) (E) (A1) (E) (E) (A2) (E)
                 (E) (A1) (E) (E) (A1) (E) (E) (A2) (E) (E) (A1)
                 (A2) (E) (E) (A1) (E) (E) (E) (E) (A1) (A2) (E)
                 (E) (E) (E) (A2) (E) (E) (A1) (A1) (E) (E) (A2)
                 (E) (E) (A1) (E) (E) (E) (E) (A1) (A2) (E) (E)
                 (E) (E) (A1) (E) (E) (A1) (A2) (E) (E) (E) (E)
                 (A2) (A1) (A2) (E) (E) (E) (E) (E) (E) (A1) (E)
                 (E) (A1) (E) (E) (A1) (A2) (E) (E) (E) (E) (A2)
                 (E) (E) (A1) (E) (E) (A1) (E) (E) (A1) (A1) (E)
                 (E) (E) (E) (E) (E) (A2) (A1) (E) (E) (A2) (A1)
                 (E) (E) (A2) (E) (E) (A1) (A1) (E) (E) (A1) (A1)
                 (E) (E) (A1) (A1) (E) (E)
 The electronic state is 1-A1.
 Alpha  occ. eigenvalues --  -10.53940 -10.52207 -10.52207 -10.52205  -0.90205
 Alpha  occ. eigenvalues --   -0.77233  -0.77233  -0.63944  -0.53383  -0.49824
 Alpha  occ. eigenvalues --   -0.49824  -0.44652  -0.44652  -0.42468  -0.38486
 Alpha  occ. eigenvalues --   -0.38486  -0.37955
 Alpha virt. eigenvalues --    0.01036   0.03184   0.03184   0.03515   0.07658
 Alpha virt. eigenvalues --    0.08088   0.08088   0.10162   0.10162   0.11436
 Alpha virt. eigenvalues --    0.13797   0.13797   0.14556   0.14918   0.14918
 Alpha virt. eigenvalues --    0.15552   0.18854   0.18854   0.19097   0.20666
 Alpha virt. eigenvalues --    0.21548   0.21548   0.22042   0.23049   0.23449
 Alpha virt. eigenvalues --    0.23449   0.25222   0.25228   0.25228   0.27265
 Alpha virt. eigenvalues --    0.27602   0.27602   0.29445   0.29445   0.29722
 Alpha virt. eigenvalues --    0.30429   0.30429   0.32588   0.32588   0.32864
 Alpha virt. eigenvalues --    0.33041   0.34010   0.34010   0.35826   0.36138
 Alpha virt. eigenvalues --    0.36138   0.36911   0.36911   0.37289   0.37289
 Alpha virt. eigenvalues --    0.38112   0.38421   0.38421   0.38602   0.40176
 Alpha virt. eigenvalues --    0.41604   0.43085   0.43423   0.43423   0.45543
 Alpha virt. eigenvalues --    0.45543   0.47163   0.47163   0.47788   0.49142
 Alpha virt. eigenvalues --    0.49270   0.50311   0.50311   0.51974   0.51987
 Alpha virt. eigenvalues --    0.51987   0.56602   0.56602   0.57183   0.59695
 Alpha virt. eigenvalues --    0.59695   0.60351   0.60351   0.60757   0.62045
 Alpha virt. eigenvalues --    0.65908   0.66711   0.66711   0.68165   0.68165
 Alpha virt. eigenvalues --    0.70489   0.70489   0.72726   0.73498   0.80557
 Alpha virt. eigenvalues --    0.83989   0.83989   0.84419   0.86515   0.86515
 Alpha virt. eigenvalues --    0.89031   0.89031   0.90999   0.90999   0.91376
 Alpha virt. eigenvalues --    0.92035   0.94103   0.95799   0.96223   0.96223
 Alpha virt. eigenvalues --    0.97446   0.99036   0.99036   1.02177   1.02177
 Alpha virt. eigenvalues --    1.04875   1.05634   1.05634   1.06035   1.10095
 Alpha virt. eigenvalues --    1.10095   1.11612   1.13524   1.13524   1.15422
 Alpha virt. eigenvalues --    1.15422   1.16506   1.17443   1.19527   1.19527
 Alpha virt. eigenvalues --    1.23442   1.23618   1.23618   1.27198   1.27198
 Alpha virt. eigenvalues --    1.29446   1.31545   1.33641   1.33641   1.34461
 Alpha virt. eigenvalues --    1.35610   1.35610   1.43295   1.43295   1.44977
 Alpha virt. eigenvalues --    1.46293   1.46293   1.49350   1.51777   1.51777
 Alpha virt. eigenvalues --    1.53394   1.56723   1.56723   1.57732   1.59259
 Alpha virt. eigenvalues --    1.63264   1.64468   1.64468   1.68956   1.68956
 Alpha virt. eigenvalues --    1.70950   1.84619   1.84619   1.91255   1.91255
 Alpha virt. eigenvalues --    1.95158   1.95778   1.98475   2.00682   2.00682
 Alpha virt. eigenvalues --    2.04598   2.04598   2.07250   2.09594   2.09594
 Alpha virt. eigenvalues --    2.10349   2.12869   2.13808   2.13808   2.13982
 Alpha virt. eigenvalues --    2.15266   2.15266   2.18899   2.19495   2.19495
 Alpha virt. eigenvalues --    2.20814   2.20814   2.20874   2.23761   2.25137
 Alpha virt. eigenvalues --    2.25419   2.25419   2.29327   2.29327   2.32030
 Alpha virt. eigenvalues --    2.32030   2.35476   2.37072   2.37072   2.39375
 Alpha virt. eigenvalues --    2.40012   2.41831   2.41831   2.43924   2.46077
 Alpha virt. eigenvalues --    2.51408   2.51408   2.56024   2.56024   2.56476
 Alpha virt. eigenvalues --    2.58110   2.58110   2.59562   2.64718   2.64718
 Alpha virt. eigenvalues --    2.67549   2.68384   2.68384   2.68759   2.74631
 Alpha virt. eigenvalues --    2.74631   2.77354   2.77354   2.82567   2.82567
 Alpha virt. eigenvalues --    2.84082   2.86007   2.86007   2.87003   2.87003
 Alpha virt. eigenvalues --    2.90791   2.91684   2.92202   2.92202   2.94705
 Alpha virt. eigenvalues --    2.94705   2.99576   3.00112   3.01474   3.01474
 Alpha virt. eigenvalues --    3.05500   3.05500   3.05624   3.05820   3.05820
 Alpha virt. eigenvalues --    3.09107   3.10640   3.11861   3.11861   3.22953
 Alpha virt. eigenvalues --    3.22953   3.23636   3.25535   3.27235   3.29553
 Alpha virt. eigenvalues --    3.29553   3.30554   3.30554   3.30813   3.33658
 Alpha virt. eigenvalues --    3.36232   3.36232   3.36415   3.42945   3.42945
 Alpha virt. eigenvalues --    3.43748   3.45798   3.45798   3.51741   3.55604
 Alpha virt. eigenvalues --    3.55604   3.58436   3.59319   3.59319   3.67638
 Alpha virt. eigenvalues --    3.70983   3.73015   3.73015   3.80119   3.80119
 Alpha virt. eigenvalues --    3.80605   3.86250   3.86250   3.89780   3.89780
 Alpha virt. eigenvalues --    3.91706   3.92250   3.92250   3.97339   3.99540
 Alpha virt. eigenvalues --    3.99540   4.01017   4.04071   4.10181   4.10181
 Alpha virt. eigenvalues --    4.22965   4.32701   4.32701   4.35370   4.36234
 Alpha virt. eigenvalues --    4.46819   4.46819   4.71798   4.71798   4.78103
 Alpha virt. eigenvalues --    4.83291   5.07141   5.07141   5.11467   5.11467
 Alpha virt. eigenvalues --    5.22648   5.39188   5.42555   5.42574   5.42574
 Alpha virt. eigenvalues --    5.43682   5.43682   5.51617   5.51617   5.53211
 Alpha virt. eigenvalues --    5.56289   5.56289   5.60261   5.65706   5.66781
 Alpha virt. eigenvalues --    5.68422   5.68422   5.72704   5.75278   5.75278
 Alpha virt. eigenvalues --    5.76437   5.76437   5.78456   5.78456   5.79482
 Alpha virt. eigenvalues --    5.81231   5.86012   5.86012   5.86104   5.89534
 Alpha virt. eigenvalues --    5.89534   5.90039   5.96036   5.96036   5.96677
 Alpha virt. eigenvalues --    5.99268   5.99268   6.01314   6.02564   6.02564
 Alpha virt. eigenvalues --    6.08314   6.08314   6.08687   6.11735   6.11735
 Alpha virt. eigenvalues --    6.12778   6.18888   6.19049   6.19049   6.19850
 Alpha virt. eigenvalues --    6.21190   6.23580   6.24783   6.24783   6.26163
 Alpha virt. eigenvalues --    6.26163   6.28920   6.30274   6.30274   6.35279
 Alpha virt. eigenvalues --    6.35279   6.36739   6.37375   6.45541   6.45541
 Alpha virt. eigenvalues --    6.48907   6.50369   6.50369   6.52159   6.52159
 Alpha virt. eigenvalues --    6.58223   6.58223   6.59652   6.66070   6.66176
 Alpha virt. eigenvalues --    6.66176   6.71806   6.75900   6.77412   6.77773
 Alpha virt. eigenvalues --    6.77773   6.80399   6.80399   6.89084   6.89935
 Alpha virt. eigenvalues --    6.89935   6.97544   6.98135   6.98135   6.98146
 Alpha virt. eigenvalues --    6.98252   6.98680   6.98680   7.10090   7.17071
 Alpha virt. eigenvalues --    7.17071   7.19786   7.19786   7.20161   7.24410
 Alpha virt. eigenvalues --    7.25609   7.25609   7.30475   7.33287   7.33287
 Alpha virt. eigenvalues --    7.37363   7.37363   7.38142   7.43480   7.43480
 Alpha virt. eigenvalues --    7.48243   7.49608   7.51024   7.51024   7.52802
 Alpha virt. eigenvalues --    7.52802   7.54515   7.57247   7.57247   7.57922
 Alpha virt. eigenvalues --    7.57922   7.58298   7.59742   7.63627   7.66850
 Alpha virt. eigenvalues --    7.66850   7.69326   7.69326   7.73567   7.73567
 Alpha virt. eigenvalues --    7.76418   7.76993   7.76993   7.81482   7.84135
 Alpha virt. eigenvalues --    7.84135   7.85922   7.86861   7.86861   7.91953
 Alpha virt. eigenvalues --    7.92261   7.92261   7.97170   7.99911   7.99911
 Alpha virt. eigenvalues --    8.00906   8.05668   8.06228   8.06228   8.07762
 Alpha virt. eigenvalues --    8.18561   8.18561   8.21796   8.21796   8.21835
 Alpha virt. eigenvalues --    8.25038   8.25377   8.25377   8.27523   8.27523
 Alpha virt. eigenvalues --    8.28218   8.31303   8.31303   8.34926   8.36806
 Alpha virt. eigenvalues --    8.39202   8.39202   8.40673   8.42502   8.42502
 Alpha virt. eigenvalues --    8.43256   8.46031   8.46031   8.50241   8.50241
 Alpha virt. eigenvalues --    8.58739   8.59694   8.61029   8.61029   8.64715
 Alpha virt. eigenvalues --    8.64715   8.67622   8.74160   8.74160   8.78720
 Alpha virt. eigenvalues --    8.81226   8.85121   8.85121   8.85637   8.85637
 Alpha virt. eigenvalues --    8.85645   8.89499   8.90061   8.90063   8.90063
 Alpha virt. eigenvalues --    8.98490   8.98490   9.03638   9.03638   9.16235
 Alpha virt. eigenvalues --    9.29110   9.29110   9.54918   9.57477   9.57477
 Alpha virt. eigenvalues --    9.60349   9.63191   9.63515   9.63515   9.65095
 Alpha virt. eigenvalues --    9.65095   9.71820   9.72659   9.72659   9.74446
 Alpha virt. eigenvalues --    9.76740   9.76740   9.81350   9.87223   9.87223
 Alpha virt. eigenvalues --    9.88972  10.00679  10.06662  10.06662  10.15525
 Alpha virt. eigenvalues --   10.15525  10.17466  10.17466  10.21646  10.22008
 Alpha virt. eigenvalues --   10.33550  10.33550  10.48094  11.94252  12.01379
 Alpha virt. eigenvalues --   12.01379  12.05689  12.14508  12.14508  12.80509
 Alpha virt. eigenvalues --   13.11151  13.15935  13.15935  29.05864  29.14345
 Alpha virt. eigenvalues --   29.25728  29.25728 146.56624 146.69601 146.76949
 Alpha virt. eigenvalues --  146.76949
          Condensed to atoms (all electrons):
               1          2          3          4          5          6
     1  C    5.964744   0.347565   0.208563   0.208563   0.208563  -0.040976
     2  H    0.347565   0.419454  -0.041855  -0.041855  -0.041855   0.001944
     3  C    0.208563  -0.041855   5.941471  -0.166805  -0.166805   0.347796
     4  C    0.208563  -0.041855  -0.166805   5.941471  -0.166805  -0.011588
     5  C    0.208563  -0.041855  -0.166805  -0.166805   5.941471  -0.011588
     6  H   -0.040976   0.001944   0.347796  -0.011588  -0.011588   0.442265
     7  H   -0.040976   0.001944  -0.011588   0.347796  -0.011588  -0.006373
     8  H   -0.040976   0.001944  -0.011588  -0.011588   0.347796  -0.006373
     9  H   -0.062889   0.001907   0.364314  -0.003263   0.006796  -0.016424
    10  H   -0.062889   0.001907   0.364314   0.006796  -0.003263  -0.016424
    11  H   -0.062889   0.001907   0.006796   0.364314  -0.003263   0.001150
    12  H   -0.062889   0.001907  -0.003263   0.364314   0.006796  -0.000586
    13  H   -0.062889   0.001907  -0.003263   0.006796   0.364314  -0.000586
    14  H   -0.062889   0.001907   0.006796  -0.003263   0.364314   0.001150
               7          8          9         10         11         12
     1  C   -0.040976  -0.040976  -0.062889  -0.062889  -0.062889  -0.062889
     2  H    0.001944   0.001944   0.001907   0.001907   0.001907   0.001907
     3  C   -0.011588  -0.011588   0.364314   0.364314   0.006796  -0.003263
     4  C    0.347796  -0.011588  -0.003263   0.006796   0.364314   0.364314
     5  C   -0.011588   0.347796   0.006796  -0.003263  -0.003263   0.006796
     6  H   -0.006373  -0.006373  -0.016424  -0.016424   0.001150  -0.000586
     7  H    0.442265  -0.006373  -0.000586   0.001150  -0.016424  -0.016424
     8  H   -0.006373   0.442265   0.001150  -0.000586  -0.000586   0.001150
     9  H   -0.000586   0.001150   0.452492  -0.016743   0.000668  -0.003384
    10  H    0.001150  -0.000586  -0.016743   0.452492   0.000082   0.000668
    11  H   -0.016424  -0.000586   0.000668   0.000082   0.452492  -0.016743
    12  H   -0.016424   0.001150  -0.003384   0.000668  -0.016743   0.452492
    13  H    0.001150  -0.016424   0.000668  -0.003384   0.000668   0.000082
    14  H   -0.000586  -0.016424   0.000082   0.000668  -0.003384   0.000668
              13         14
     1  C   -0.062889  -0.062889
     2  H    0.001907   0.001907
     3  C   -0.003263   0.006796
     4  C    0.006796  -0.003263
     5  C    0.364314   0.364314
     6  H   -0.000586   0.001150
     7  H    0.001150  -0.000586
     8  H   -0.016424  -0.016424
     9  H    0.000668   0.000082
    10  H   -0.003384   0.000668
    11  H    0.000668  -0.003384
    12  H    0.000082   0.000668
    13  H    0.452492  -0.016743
    14  H   -0.016743   0.452492
 Mulliken charges:
               1
     1  C   -0.437738
     2  H    0.341269
     3  C   -0.834882
     4  C   -0.834882
     5  C   -0.834882
     6  H    0.316613
     7  H    0.316613
     8  H    0.316613
     9  H    0.275213
    10  H    0.275213
    11  H    0.275213
    12  H    0.275213
    13  H    0.275213
    14  H    0.275213
 Sum of Mulliken charges =  -0.00000
 Mulliken charges with hydrogens summed into heavy atoms:
               1
     1  C   -0.096469
     3  C    0.032156
     4  C    0.032156
     5  C    0.032156
 Electronic spatial extent (au):  <R**2>=            353.8829
 Charge=             -0.0000 electrons
 Dipole moment (field-independent basis, Debye):
    X=              0.0000    Y=             -0.0000    Z=              0.1370  Tot=              0.1370
 Quadrupole moment (field-independent basis, Debye-Ang):
   XX=            -28.9917   YY=            -28.9917   ZZ=            -28.4124
   XY=             -0.0000   XZ=             -0.0000   YZ=              0.0000
 Traceless Quadrupole moment (field-independent basis, Debye-Ang):
   XX=             -0.1931   YY=             -0.1931   ZZ=              0.3862
   XY=             -0.0000   XZ=             -0.0000   YZ=              0.0000
 Octapole moment (field-independent basis, Debye-Ang**2):
  XXX=              0.0000  YYY=             -1.8382  ZZZ=             -0.7505  XYY=              0.0000
  XXY=              1.8382  XXZ=              1.4025  XZZ=              0.0000  YZZ=              0.0000
  YYZ=              1.4025  XYZ=              0.0000
 Hexadecapole moment (field-independent basis, Debye-Ang**3):
 XXXX=           -217.9358 YYYY=           -217.9358 ZZZZ=            -65.9403 XXXY=             -0.0000
 XXXZ=              0.0000 YYYX=              0.0000 YYYZ=             -1.1112 ZZZX=             -0.0000
 ZZZY=              0.0000 XXYY=            -72.6453 XXZZ=            -48.5827 YYZZ=            -48.5827
 XXYZ=              1.1112 YYXZ=              0.0000 ZZXY=              0.0000
 N-N= 1.347108377041D+02 E-N=-6.354933949101D+02  KE= 1.576357464024D+02
 PrsmSu:  requested number of processors reduced to:  20 ShMem   1 Linda.
 No NMR shielding tensors so no spin-rotation constants.
 Leave Link  601 at Sat Apr 17 20:26:26 2021, MaxMem=   104857600 cpu:             510.9 elap:              11.1
 (Enter /s/ls4/users/knvvv/bin/g16sse/l801.exe)
 DoSCS=F DFT=T ScalE2(SS,OS)=  1.000000  1.000000
 Range of M.O.s used for correlation:     1   573
 NBasis=   582 NAE=    17 NBE=    17 NFC=     0 NFV=     0
 NROrb=    573 NOA=    17 NOB=    17 NVA=   556 NVB=   556

 **** Warning!!: The largest alpha MO coefficient is  0.78143289D+02

 Leave Link  801 at Sat Apr 17 20:26:26 2021, MaxMem=   104857600 cpu:               4.2 elap:               0.1
 (Enter /s/ls4/users/knvvv/bin/g16sse/l914.exe)
 RHF ground state
 Doing stability rather than CIS.
 Two-electron integrals replicated using symmetry.
 MDV=   104857600 DFT=T DoStab=T Mixed=T DoRPA=F DoScal=F NonHer=F
 Making orbital integer symmetry assigments:
 Orbital symmetries:
       Occupied  (A1) (E) (E) (A1) (A1) (E) (E) (A1) (A1) (E) (E)
                 (E) (E) (A2) (E) (E) (A1)
       Virtual   (A1) (E) (E) (A1) (A1) (E) (E) (E) (E) (A1) (E)
                 (E) (A2) (E) (E) (A1) (E) (E) (A1) (A1) (E) (E)
                 (A2) (A1) (E) (E) (A1) (E) (E) (A1) (E) (E) (E)
                 (E) (A1) (E) (E) (E) (E) (A1) (A2) (E) (E) (A2)
                 (E) (E) (E) (E) (E) (E) (A1) (E) (E) (A1) (A1)
                 (A2) (A1) (E) (E) (E) (E) (E) (E) (A2) (A2) (A1)
                 (E) (E) (A1) (E) (E) (E) (E) (A1) (E) (E) (E)
                 (E) (A1) (A2) (A1) (E) (E) (E) (E) (E) (E) (A1)
                 (A1) (A2) (E) (E) (A1) (E) (E) (E) (E) (E) (E)
                 (A1) (A2) (A1) (A2) (E) (E) (A2) (E) (E) (E) (E)
                 (A1) (E) (E) (A1) (E) (E) (A1) (E) (E) (E) (E)
                 (A1) (A1) (E) (E) (A1) (E) (E) (E) (E) (A2) (A1)
                 (E) (E) (A2) (E) (E) (E) (E) (A1) (E) (E) (A2)
                 (E) (E) (A1) (E) (E) (A2) (A1) (A1) (E) (E) (E)
                 (E) (A1) (E) (E) (E) (E) (A2) (A1) (A1) (E) (E)
                 (E) (E) (A2) (E) (E) (A1) (A1) (E) (E) (A2) (E)
                 (E) (A1) (E) (E) (E) (E) (A1) (A2) (A1) (E) (E)
                 (E) (E) (E) (E) (A2) (E) (E) (A1) (A2) (E) (E)
                 (A1) (A2) (E) (E) (E) (E) (A1) (E) (E) (A1) (E)
                 (E) (A1) (E) (E) (A2) (E) (E) (E) (E) (E) (E)
                 (A1) (E) (E) (E) (E) (A1) (A2) (E) (E) (E) (E)
                 (A2) (A1) (E) (E) (E) (E) (A1) (E) (E) (A1) (A2)
                 (E) (E) (E) (E) (A1) (A2) (A2) (E) (E) (E) (E)
                 (A1) (A1) (E) (E) (A1) (E) (E) (A2) (E) (E) (A1)
                 (E) (E) (A1) (E) (E) (A1) (A2) (E) (E) (E) (E)
                 (A1) (E) (E) (E) (E) (A1) (E) (E) (A2) (E) (E)
                 (A1) (A2) (E) (E) (A1) (E) (E) (A2) (A1) (E) (E)
                 (E) (E) (A1) (A2) (E) (E) (E) (E) (A1) (A2) (A1)
                 (E) (E) (E) (E) (E) (E) (A2) (E) (E) (A1) (A2)
                 (A1) (E) (E) (A1) (E) (E) (E) (E) (E) (E) (A2)
                 (A1) (E) (E) (A2) (E) (E) (A1) (E) (E) (A2) (E)
                 (E) (A1) (E) (E) (E) (E) (A1) (E) (E) (A2) (A1)
                 (E) (E) (A2) (A1) (A2) (E) (E) (E) (E) (A1) (E)
                 (E) (E) (E) (A2) (A1) (E) (E) (A1) (E) (E) (E)
                 (E) (E) (E) (A1) (A2) (E) (E) (A1) (A2) (A1) (E)
                 (E) (E) (E) (A1) (E) (E) (A2) (E) (E) (A2) (A1)
                 (E) (E) (A1) (E) (E) (E) (E) (A1) (A2) (E) (E)
                 (A1) (E) (E) (E) (E) (A1) (E) (E) (A2) (A1) (E)
                 (E) (E) (E) (A2) (E) (E) (E) (E) (A1) (A1) (A2)
                 (E) (E) (E) (E) (E) (E) (A1) (E) (E) (A2) (E)
                 (E) (A1) (E) (E) (A1) (E) (E) (A2) (E) (E) (A1)
                 (A2) (E) (E) (A1) (E) (E) (E) (E) (A1) (A2) (E)
                 (E) (E) (E) (A2) (E) (E) (A1) (A1) (E) (E) (A2)
                 (E) (E) (A1) (E) (E) (E) (E) (A1) (A2) (E) (E)
                 (E) (E) (A1) (E) (E) (A1) (A2) (E) (E) (E) (E)
                 (A2) (A1) (A2) (E) (E) (E) (E) (E) (E) (A1) (E)
                 (E) (A1) (E) (E) (A1) (A2) (E) (E) (E) (E) (A2)
                 (E) (E) (A1) (E) (E) (A1) (E) (E) (A1) (A1) (E)
                 (E) (E) (E) (E) (E) (A2) (A1) (E) (E) (A2) (A1)
                 (E) (E) (A2) (E) (E) (A1) (A1) (E) (E) (A1) (A1)
                 (E) (E) (A1) (A1) (E) (E)
    24 initial guesses have been made.
 Convergence on wavefunction:    0.001000000000000
 Davidson Disk Diagonalization:  ConvIn= 1.00D-03 SkipCon=T Conv= 1.00D-03.
 Max sub-space:  2000 roots to seek:    24 dimension of matrix:        18904
 Iteration     1 Dimension    24 NMult     0 NNew     24
 Estimated number of processors is:   14
 CISAX will form     1 AO SS matrices at one time.
 NMat=     1 NSing=     1 JSym2X= 2.
 FoFJK:  IHMeth= 1 ICntrl=       0 DoSepK=F KAlg= 0 I1Cent=           0 FoldK=F
 IRaf= 980000000 NMat=       1 IRICut=       1 DoRegI=T DoRafI=F ISym2E= 2 IDoP0=0 IntGTp=1.
 FoFCou: FMM=F IPFlag=           0 FMFlag=      100000 FMFlg1=           0
         NFxFlg=           0 DoJE=F BraDBF=F KetDBF=F FulRan=T
         wScrn=  0.000000 ICntrl=         0 IOpCl=  0 I1Cent=           0 NGrid=           0
         NMat0=    1 NMatS0=      1 NMatT0=    0 NMatD0=    1 NMtDS0=    0 NMtDT0=    0
 Integrals replicated using symmetry in FoFCou.
 CoulSu:  requested number of processors reduced to:  18 ShMem   1 Linda.
 CalDSu:  requested number of processors reduced to:  43 ShMem   1 Linda.
 NMat=     1 NSing=     1 JSym2X= 2.
 CoulSu:  requested number of processors reduced to:  18 ShMem   1 Linda.
 CalDSu:  requested number of processors reduced to:  43 ShMem   1 Linda.
 NMat=     1 NSing=     1 JSym2X= 2.
 CoulSu:  requested number of processors reduced to:  18 ShMem   1 Linda.
 CalDSu:  requested number of processors reduced to:  43 ShMem   1 Linda.
 NMat=     1 NSing=     1 JSym2X= 2.
 CoulSu:  requested number of processors reduced to:  18 ShMem   1 Linda.
 CalDSu:  requested number of processors reduced to:  43 ShMem   1 Linda.
 NMat=     1 NSing=     1 JSym2X= 2.
 CoulSu:  requested number of processors reduced to:  18 ShMem   1 Linda.
 CalDSu:  requested number of processors reduced to:  43 ShMem   1 Linda.
 NMat=     1 NSing=     1 JSym2X= 2.
 CoulSu:  requested number of processors reduced to:  18 ShMem   1 Linda.
 CalDSu:  requested number of processors reduced to:  43 ShMem   1 Linda.
 NMat=     1 NSing=     1 JSym2X= 2.
 CoulSu:  requested number of processors reduced to:  18 ShMem   1 Linda.
 CalDSu:  requested number of processors reduced to:  43 ShMem   1 Linda.
 NMat=     1 NSing=     1 JSym2X= 2.
 CoulSu:  requested number of processors reduced to:  18 ShMem   1 Linda.
 CalDSu:  requested number of processors reduced to:  43 ShMem   1 Linda.
 NMat=     1 NSing=     1 JSym2X= 2.
 CoulSu:  requested number of processors reduced to:  18 ShMem   1 Linda.
 CalDSu:  requested number of processors reduced to:  43 ShMem   1 Linda.
 NMat=     1 NSing=     1 JSym2X= 2.
 CoulSu:  requested number of processors reduced to:  18 ShMem   1 Linda.
 CalDSu:  requested number of processors reduced to:  43 ShMem   1 Linda.
 NMat=     1 NSing=     1 JSym2X= 2.
 CoulSu:  requested number of processors reduced to:  18 ShMem   1 Linda.
 CalDSu:  requested number of processors reduced to:  43 ShMem   1 Linda.
 NMat=     1 NSing=     1 JSym2X= 2.
 CoulSu:  requested number of processors reduced to:  18 ShMem   1 Linda.
 CalDSu:  requested number of processors reduced to:  43 ShMem   1 Linda.
 NMat=     1 NSing=     0 JSym2X= 2.
 CoulSu:  requested number of processors reduced to:  18 ShMem   1 Linda.
 CalDSu:  requested number of processors reduced to:  43 ShMem   1 Linda.
 NMat=     1 NSing=     0 JSym2X= 2.
 CoulSu:  requested number of processors reduced to:  18 ShMem   1 Linda.
 CalDSu:  requested number of processors reduced to:  43 ShMem   1 Linda.
 NMat=     1 NSing=     0 JSym2X= 2.
 CoulSu:  requested number of processors reduced to:  18 ShMem   1 Linda.
 CalDSu:  requested number of processors reduced to:  43 ShMem   1 Linda.
 NMat=     1 NSing=     0 JSym2X= 2.
 CoulSu:  requested number of processors reduced to:  18 ShMem   1 Linda.
 CalDSu:  requested number of processors reduced to:  43 ShMem   1 Linda.
 NMat=     1 NSing=     0 JSym2X= 2.
 CoulSu:  requested number of processors reduced to:  18 ShMem   1 Linda.
 CalDSu:  requested number of processors reduced to:  43 ShMem   1 Linda.
 NMat=     1 NSing=     0 JSym2X= 2.
 CoulSu:  requested number of processors reduced to:  18 ShMem   1 Linda.
 CalDSu:  requested number of processors reduced to:  43 ShMem   1 Linda.
 NMat=     1 NSing=     0 JSym2X= 2.
 CoulSu:  requested number of processors reduced to:  18 ShMem   1 Linda.
 CalDSu:  requested number of processors reduced to:  43 ShMem   1 Linda.
 NMat=     1 NSing=     0 JSym2X= 2.
 CoulSu:  requested number of processors reduced to:  18 ShMem   1 Linda.
 CalDSu:  requested number of processors reduced to:  43 ShMem   1 Linda.
 NMat=     1 NSing=     0 JSym2X= 2.
 CoulSu:  requested number of processors reduced to:  18 ShMem   1 Linda.
 CalDSu:  requested number of processors reduced to:  43 ShMem   1 Linda.
 NMat=     1 NSing=     0 JSym2X= 2.
 CoulSu:  requested number of processors reduced to:  18 ShMem   1 Linda.
 CalDSu:  requested number of processors reduced to:  43 ShMem   1 Linda.
 NMat=     1 NSing=     0 JSym2X= 2.
 CoulSu:  requested number of processors reduced to:  18 ShMem   1 Linda.
 CalDSu:  requested number of processors reduced to:  43 ShMem   1 Linda.
 NMat=     1 NSing=     0 JSym2X= 2.
 CoulSu:  requested number of processors reduced to:  18 ShMem   1 Linda.
 CalDSu:  requested number of processors reduced to:  43 ShMem   1 Linda.
 New state      1 was old state      2
 Excitation Energies [eV] at current iteration:
 Root      1 :     8.549364995362716
 Root      2 :     8.663984462563079
 Root      3 :     8.667651264964171
 Root      4 :     8.667656277374842
 Root      5 :     8.753661632129559
 Root      6 :     8.753664389576839
 Root      7 :     9.319821579773464
 Root      8 :     9.319823286019393
 Root      9 :     9.324252211724772
 Root     10 :     9.350786030295959
 Root     11 :     9.350788536130608
 Root     12 :     9.353058384003354
 Root     13 :     9.353058488541119
 Root     14 :     9.402507113319270
 Root     15 :     9.402507137577542
 Root     16 :     9.411642089680379
 Root     17 :     9.457596863903934
 Root     18 :     9.459508722058661
 Root     19 :     9.462001198735402
 Root     20 :     9.462004430818459
 Root     21 :     9.481106061672000
 Root     22 :     9.481107075176212
 Root     23 :     9.483624671080241
 Root     24 :     9.911229934075944
 Iteration     2 Dimension    48 NMult    24 NNew     24
 Estimated number of processors is:   14
 CISAX will form     1 AO SS matrices at one time.
 NMat=     1 NSing=     1 JSym2X= 2.
 CoulSu:  requested number of processors reduced to:  18 ShMem   1 Linda.
 CalDSu:  requested number of processors reduced to:  43 ShMem   1 Linda.
 NMat=     1 NSing=     1 JSym2X= 2.
 CoulSu:  requested number of processors reduced to:  18 ShMem   1 Linda.
 CalDSu:  requested number of processors reduced to:  43 ShMem   1 Linda.
 NMat=     1 NSing=     1 JSym2X= 2.
 CoulSu:  requested number of processors reduced to:  18 ShMem   1 Linda.
 CalDSu:  requested number of processors reduced to:  43 ShMem   1 Linda.
 NMat=     1 NSing=     1 JSym2X= 2.
 CoulSu:  requested number of processors reduced to:  18 ShMem   1 Linda.
 CalDSu:  requested number of processors reduced to:  43 ShMem   1 Linda.
 NMat=     1 NSing=     1 JSym2X= 2.
 CoulSu:  requested number of processors reduced to:  18 ShMem   1 Linda.
 CalDSu:  requested number of processors reduced to:  43 ShMem   1 Linda.
 NMat=     1 NSing=     1 JSym2X= 2.
 CoulSu:  requested number of processors reduced to:  18 ShMem   1 Linda.
 CalDSu:  requested number of processors reduced to:  43 ShMem   1 Linda.
 NMat=     1 NSing=     1 JSym2X= 2.
 CoulSu:  requested number of processors reduced to:  18 ShMem   1 Linda.
 CalDSu:  requested number of processors reduced to:  43 ShMem   1 Linda.
 NMat=     1 NSing=     1 JSym2X= 2.
 CoulSu:  requested number of processors reduced to:  18 ShMem   1 Linda.
 CalDSu:  requested number of processors reduced to:  43 ShMem   1 Linda.
 NMat=     1 NSing=     1 JSym2X= 2.
 CoulSu:  requested number of processors reduced to:  18 ShMem   1 Linda.
 CalDSu:  requested number of processors reduced to:  43 ShMem   1 Linda.
 NMat=     1 NSing=     1 JSym2X= 2.
 CoulSu:  requested number of processors reduced to:  18 ShMem   1 Linda.
 CalDSu:  requested number of processors reduced to:  43 ShMem   1 Linda.
 NMat=     1 NSing=     1 JSym2X= 2.
 CoulSu:  requested number of processors reduced to:  18 ShMem   1 Linda.
 CalDSu:  requested number of processors reduced to:  43 ShMem   1 Linda.
 NMat=     1 NSing=     1 JSym2X= 2.
 CoulSu:  requested number of processors reduced to:  18 ShMem   1 Linda.
 CalDSu:  requested number of processors reduced to:  43 ShMem   1 Linda.
 NMat=     1 NSing=     0 JSym2X= 2.
 CoulSu:  requested number of processors reduced to:  18 ShMem   1 Linda.
 CalDSu:  requested number of processors reduced to:  43 ShMem   1 Linda.
 NMat=     1 NSing=     0 JSym2X= 2.
 CoulSu:  requested number of processors reduced to:  18 ShMem   1 Linda.
 CalDSu:  requested number of processors reduced to:  43 ShMem   1 Linda.
 NMat=     1 NSing=     0 JSym2X= 2.
 CoulSu:  requested number of processors reduced to:  18 ShMem   1 Linda.
 CalDSu:  requested number of processors reduced to:  43 ShMem   1 Linda.
 NMat=     1 NSing=     0 JSym2X= 2.
 CoulSu:  requested number of processors reduced to:  18 ShMem   1 Linda.
 CalDSu:  requested number of processors reduced to:  43 ShMem   1 Linda.
 NMat=     1 NSing=     0 JSym2X= 2.
 CoulSu:  requested number of processors reduced to:  18 ShMem   1 Linda.
 CalDSu:  requested number of processors reduced to:  43 ShMem   1 Linda.
 NMat=     1 NSing=     0 JSym2X= 2.
 CoulSu:  requested number of processors reduced to:  18 ShMem   1 Linda.
 CalDSu:  requested number of processors reduced to:  43 ShMem   1 Linda.
 NMat=     1 NSing=     0 JSym2X= 2.
 CoulSu:  requested number of processors reduced to:  18 ShMem   1 Linda.
 CalDSu:  requested number of processors reduced to:  43 ShMem   1 Linda.
 NMat=     1 NSing=     0 JSym2X= 2.
 CoulSu:  requested number of processors reduced to:  18 ShMem   1 Linda.
 CalDSu:  requested number of processors reduced to:  43 ShMem   1 Linda.
 NMat=     1 NSing=     0 JSym2X= 2.
 CoulSu:  requested number of processors reduced to:  18 ShMem   1 Linda.
 CalDSu:  requested number of processors reduced to:  43 ShMem   1 Linda.
 NMat=     1 NSing=     0 JSym2X= 2.
 CoulSu:  requested number of processors reduced to:  18 ShMem   1 Linda.
 CalDSu:  requested number of processors reduced to:  43 ShMem   1 Linda.
 NMat=     1 NSing=     0 JSym2X= 2.
 CoulSu:  requested number of processors reduced to:  18 ShMem   1 Linda.
 CalDSu:  requested number of processors reduced to:  43 ShMem   1 Linda.
 NMat=     1 NSing=     0 JSym2X= 2.
 CoulSu:  requested number of processors reduced to:  18 ShMem   1 Linda.
 CalDSu:  requested number of processors reduced to:  43 ShMem   1 Linda.
 Root      1 not converged, maximum delta is    0.089247376206767
 Excitation Energies [eV] at current iteration:
 Root      1 :     8.265129744114901   Change is   -0.284235251247814
 Root      2 :     8.448292890232631   Change is   -0.219358374731541
 Root      3 :     8.448310048819142   Change is   -0.219346228555700
 Root      4 :     8.525086102403625   Change is   -0.138898360159454
 Root      5 :     8.640270270150880   Change is   -0.113391361978678
 Root      6 :     8.640275274569671   Change is   -0.113389115007168
 Root      7 :     9.066223875054176   Change is   -0.258028336670597
 Root      8 :     9.150992345990410   Change is   -0.168829233783054
 Root      9 :     9.150994936330173   Change is   -0.168828349689220
 Root     10 :     9.208505055594202   Change is   -0.144553432946916
 Root     11 :     9.208507972753997   Change is   -0.144550411249358
 Root     12 :     9.238873699508307   Change is   -0.111912330787652
 Root     13 :     9.238877701984727   Change is   -0.111910834145882
 Root     14 :     9.262379141952710   Change is   -0.197129580105950
 Root     15 :     9.277752357332494   Change is   -0.179844506571440
 Root     16 :     9.299242790923167   Change is   -0.112399298757213
 Root     17 :     9.303607075545472   Change is   -0.098900037773799
 Root     18 :     9.303608325495778   Change is   -0.098898812081764
 Root     19 :     9.303945060905811   Change is   -0.158059369912648
 Root     20 :     9.303950871193019   Change is   -0.158050327542385
 Root     21 :     9.352604584410937   Change is   -0.131020086669305
 Root     22 :     9.374514578303565   Change is   -0.106591483368436
 Root     23 :     9.374519580217914   Change is   -0.106587494958297
 Root     24 :     9.599745985211996   Change is   -0.311483948863948
 Iteration     3 Dimension    54 NMult    48 NNew      6
 Estimated number of processors is:   14
 CISAX will form     1 AO SS matrices at one time.
 NMat=     1 NSing=     1 JSym2X= 2.
 CoulSu:  requested number of processors reduced to:  18 ShMem   1 Linda.
 CalDSu:  requested number of processors reduced to:  43 ShMem   1 Linda.
 NMat=     1 NSing=     1 JSym2X= 2.
 CoulSu:  requested number of processors reduced to:  18 ShMem   1 Linda.
 CalDSu:  requested number of processors reduced to:  43 ShMem   1 Linda.
 NMat=     1 NSing=     1 JSym2X= 2.
 CoulSu:  requested number of processors reduced to:  18 ShMem   1 Linda.
 CalDSu:  requested number of processors reduced to:  43 ShMem   1 Linda.
 NMat=     1 NSing=     0 JSym2X= 2.
 CoulSu:  requested number of processors reduced to:  18 ShMem   1 Linda.
 CalDSu:  requested number of processors reduced to:  43 ShMem   1 Linda.
 NMat=     1 NSing=     0 JSym2X= 2.
 CoulSu:  requested number of processors reduced to:  18 ShMem   1 Linda.
 CalDSu:  requested number of processors reduced to:  43 ShMem   1 Linda.
 NMat=     1 NSing=     0 JSym2X= 2.
 CoulSu:  requested number of processors reduced to:  18 ShMem   1 Linda.
 CalDSu:  requested number of processors reduced to:  43 ShMem   1 Linda.
 Root      1 not converged, maximum delta is    0.045041494790622
 Excitation Energies [eV] at current iteration:
 Root      1 :     8.197285230667013   Change is   -0.067844513447888
 Root      2 :     8.407490468416889   Change is   -0.040802421815742
 Root      3 :     8.407514376824556   Change is   -0.040795671994585
 Root      4 :     8.484680960724303   Change is   -0.040405141679322
 Root      5 :     8.597878207157404   Change is   -0.042392062993477
 Root      6 :     8.597883870508568   Change is   -0.042391404061103
 Iteration     4 Dimension    60 NMult    54 NNew      6
 Estimated number of processors is:   14
 CISAX will form     1 AO SS matrices at one time.
 NMat=     1 NSing=     1 JSym2X= 2.
 CoulSu:  requested number of processors reduced to:  18 ShMem   1 Linda.
 CalDSu:  requested number of processors reduced to:  43 ShMem   1 Linda.
 NMat=     1 NSing=     1 JSym2X= 2.
 CoulSu:  requested number of processors reduced to:  18 ShMem   1 Linda.
 CalDSu:  requested number of processors reduced to:  43 ShMem   1 Linda.
 NMat=     1 NSing=     1 JSym2X= 2.
 CoulSu:  requested number of processors reduced to:  18 ShMem   1 Linda.
 CalDSu:  requested number of processors reduced to:  43 ShMem   1 Linda.
 NMat=     1 NSing=     0 JSym2X= 2.
 CoulSu:  requested number of processors reduced to:  18 ShMem   1 Linda.
 CalDSu:  requested number of processors reduced to:  43 ShMem   1 Linda.
 NMat=     1 NSing=     0 JSym2X= 2.
 CoulSu:  requested number of processors reduced to:  18 ShMem   1 Linda.
 CalDSu:  requested number of processors reduced to:  43 ShMem   1 Linda.
 NMat=     1 NSing=     0 JSym2X= 2.
 CoulSu:  requested number of processors reduced to:  18 ShMem   1 Linda.
 CalDSu:  requested number of processors reduced to:  43 ShMem   1 Linda.
 Root      1 not converged, maximum delta is    0.006805184488895
 Excitation Energies [eV] at current iteration:
 Root      1 :     8.187930073418890   Change is   -0.009355157248124
 Root      2 :     8.399309110454071   Change is   -0.008181357962817
 Root      3 :     8.399335507202693   Change is   -0.008178869621863
 Root      4 :     8.477802459341168   Change is   -0.006878501383134
 Root      5 :     8.593348995942447   Change is   -0.004529211214957
 Root      6 :     8.593354862050649   Change is   -0.004529008457919
 Iteration     5 Dimension    66 NMult    60 NNew      6
 Estimated number of processors is:   14
 CISAX will form     1 AO SS matrices at one time.
 NMat=     1 NSing=     1 JSym2X= 2.
 CoulSu:  requested number of processors reduced to:  18 ShMem   1 Linda.
 CalDSu:  requested number of processors reduced to:  43 ShMem   1 Linda.
 NMat=     1 NSing=     1 JSym2X= 2.
 CoulSu:  requested number of processors reduced to:  18 ShMem   1 Linda.
 CalDSu:  requested number of processors reduced to:  43 ShMem   1 Linda.
 NMat=     1 NSing=     1 JSym2X= 2.
 CoulSu:  requested number of processors reduced to:  18 ShMem   1 Linda.
 CalDSu:  requested number of processors reduced to:  43 ShMem   1 Linda.
 NMat=     1 NSing=     0 JSym2X= 2.
 CoulSu:  requested number of processors reduced to:  18 ShMem   1 Linda.
 CalDSu:  requested number of processors reduced to:  43 ShMem   1 Linda.
 NMat=     1 NSing=     0 JSym2X= 2.
 CoulSu:  requested number of processors reduced to:  18 ShMem   1 Linda.
 CalDSu:  requested number of processors reduced to:  43 ShMem   1 Linda.
 NMat=     1 NSing=     0 JSym2X= 2.
 CoulSu:  requested number of processors reduced to:  18 ShMem   1 Linda.
 CalDSu:  requested number of processors reduced to:  43 ShMem   1 Linda.
 Root      1 not converged, maximum delta is    0.002106822206968
 Excitation Energies [eV] at current iteration:
 Root      1 :     8.186810804115609   Change is   -0.001119269303280
 Root      2 :     8.397773574925868   Change is   -0.001535535528203
 Root      3 :     8.397800484333834   Change is   -0.001535022868860
 Root      4 :     8.477004146227223   Change is   -0.000798313113945
 Root      5 :     8.592428653805149   Change is   -0.000920342137298
 Root      6 :     8.592434594577682   Change is   -0.000920267472966
 Iteration     6 Dimension    72 NMult    66 NNew      6
 Estimated number of processors is:   14
 CISAX will form     1 AO SS matrices at one time.
 NMat=     1 NSing=     1 JSym2X= 2.
 CoulSu:  requested number of processors reduced to:  18 ShMem   1 Linda.
 CalDSu:  requested number of processors reduced to:  43 ShMem   1 Linda.
 NMat=     1 NSing=     1 JSym2X= 2.
 CoulSu:  requested number of processors reduced to:  18 ShMem   1 Linda.
 CalDSu:  requested number of processors reduced to:  43 ShMem   1 Linda.
 NMat=     1 NSing=     1 JSym2X= 2.
 CoulSu:  requested number of processors reduced to:  18 ShMem   1 Linda.
 CalDSu:  requested number of processors reduced to:  43 ShMem   1 Linda.
 NMat=     1 NSing=     0 JSym2X= 2.
 CoulSu:  requested number of processors reduced to:  18 ShMem   1 Linda.
 CalDSu:  requested number of processors reduced to:  43 ShMem   1 Linda.
 NMat=     1 NSing=     0 JSym2X= 2.
 CoulSu:  requested number of processors reduced to:  18 ShMem   1 Linda.
 CalDSu:  requested number of processors reduced to:  43 ShMem   1 Linda.
 NMat=     1 NSing=     0 JSym2X= 2.
 CoulSu:  requested number of processors reduced to:  18 ShMem   1 Linda.
 CalDSu:  requested number of processors reduced to:  43 ShMem   1 Linda.
 Root      1 not converged, maximum delta is    0.001267944428397
 Excitation Energies [eV] at current iteration:
 Root      1 :     8.186616127141905   Change is   -0.000194676973704
 Root      2 :     8.397420997538747   Change is   -0.000352577387122
 Root      3 :     8.397448009236827   Change is   -0.000352475097006
 Root      4 :     8.476906485735984   Change is   -0.000097660491240
 Root      5 :     8.592281849771371   Change is   -0.000146804033778
 Root      6 :     8.592287799796077   Change is   -0.000146794781606
 Iteration     7 Dimension    78 NMult    72 NNew      6
 Estimated number of processors is:   14
 CISAX will form     1 AO SS matrices at one time.
 NMat=     1 NSing=     1 JSym2X= 2.
 CoulSu:  requested number of processors reduced to:  18 ShMem   1 Linda.
 CalDSu:  requested number of processors reduced to:  43 ShMem   1 Linda.
 NMat=     1 NSing=     1 JSym2X= 2.
 CoulSu:  requested number of processors reduced to:  18 ShMem   1 Linda.
 CalDSu:  requested number of processors reduced to:  43 ShMem   1 Linda.
 NMat=     1 NSing=     1 JSym2X= 2.
 CoulSu:  requested number of processors reduced to:  18 ShMem   1 Linda.
 CalDSu:  requested number of processors reduced to:  43 ShMem   1 Linda.
 NMat=     1 NSing=     0 JSym2X= 2.
 CoulSu:  requested number of processors reduced to:  18 ShMem   1 Linda.
 CalDSu:  requested number of processors reduced to:  43 ShMem   1 Linda.
 NMat=     1 NSing=     0 JSym2X= 2.
 CoulSu:  requested number of processors reduced to:  18 ShMem   1 Linda.
 CalDSu:  requested number of processors reduced to:  43 ShMem   1 Linda.
 NMat=     1 NSing=     0 JSym2X= 2.
 CoulSu:  requested number of processors reduced to:  18 ShMem   1 Linda.
 CalDSu:  requested number of processors reduced to:  43 ShMem   1 Linda.
 Root      1 has converged.
 Excitation Energies [eV] at current iteration:
 Root      1 :     8.186574182741230   Change is   -0.000041944400675
 Root      2 :     8.397318988520205   Change is   -0.000102009018542
 Root      3 :     8.397346006342058   Change is   -0.000102002894769
 Root      4 :     8.476892893929236   Change is   -0.000013591806749
 Root      5 :     8.592266637260220   Change is   -0.000015212511152
 Root      6 :     8.592272587793301   Change is   -0.000015212002775
 Convergence achieved on expansion vectors.
 ***********************************************************************
 Stability analysis using <AA,BB:AA,BB> singles matrix:
 ***********************************************************************
 1PDM for each excited state written to RWF  633
 Ground to excited state transition densities written to RWF  633

 Eigenvectors of the stability matrix:
 
 Eigenvector   1:      Triplet-A1   Eigenvalue= 0.3008511  <S**2>=2.000
      17 -> 18         0.60682
      17 -> 21        -0.28198
      17 -> 36         0.13596
 The wavefunction is stable under the perturbations considered.
 Leave Link  914 at Sat Apr 17 21:32:49 2021, MaxMem=   104857600 cpu:          136564.2 elap:            3983.7
 (Enter /s/ls4/users/knvvv/bin/g16sse/l508.exe)
 The wavefunction is already stable.
 Leave Link  508 at Sat Apr 17 21:32:50 2021, MaxMem=   104857600 cpu:               2.4 elap:               0.1
 (Enter /s/ls4/users/knvvv/bin/g16sse/l601.exe)
 Copying SCF densities to generalized density rwf, IOpCl= 0 IROHF=0.

 **********************************************************************

            Population analysis using the SCF density.

 **********************************************************************

 Orbital symmetries:
       Occupied  (A1) (E) (E) (A1) (A1) (E) (E) (A1) (A1) (E) (E)
                 (E) (E) (A2) (E) (E) (A1)
       Virtual   (A1) (E) (E) (A1) (A1) (E) (E) (E) (E) (A1) (E)
                 (E) (A2) (E) (E) (A1) (E) (E) (A1) (A1) (E) (E)
                 (A2) (A1) (E) (E) (A1) (E) (E) (A1) (E) (E) (E)
                 (E) (A1) (E) (E) (E) (E) (A1) (A2) (E) (E) (A2)
                 (E) (E) (E) (E) (E) (E) (A1) (E) (E) (A1) (A1)
                 (A2) (A1) (E) (E) (E) (E) (E) (E) (A2) (A2) (A1)
                 (E) (E) (A1) (E) (E) (E) (E) (A1) (E) (E) (E)
                 (E) (A1) (A2) (A1) (E) (E) (E) (E) (E) (E) (A1)
                 (A1) (A2) (E) (E) (A1) (E) (E) (E) (E) (E) (E)
                 (A1) (A2) (A1) (A2) (E) (E) (A2) (E) (E) (E) (E)
                 (A1) (E) (E) (A1) (E) (E) (A1) (E) (E) (E) (E)
                 (A1) (A1) (E) (E) (A1) (E) (E) (E) (E) (A2) (A1)
                 (E) (E) (A2) (E) (E) (E) (E) (A1) (E) (E) (A2)
                 (E) (E) (A1) (E) (E) (A2) (A1) (A1) (E) (E) (E)
                 (E) (A1) (E) (E) (E) (E) (A2) (A1) (A1) (E) (E)
                 (E) (E) (A2) (E) (E) (A1) (A1) (E) (E) (A2) (E)
                 (E) (A1) (E) (E) (E) (E) (A1) (A2) (A1) (E) (E)
                 (E) (E) (E) (E) (A2) (E) (E) (A1) (A2) (E) (E)
                 (A1) (A2) (E) (E) (E) (E) (A1) (E) (E) (A1) (E)
                 (E) (A1) (E) (E) (A2) (E) (E) (E) (E) (E) (E)
                 (A1) (E) (E) (E) (E) (A1) (A2) (E) (E) (E) (E)
                 (A2) (A1) (E) (E) (E) (E) (A1) (E) (E) (A1) (A2)
                 (E) (E) (E) (E) (A1) (A2) (A2) (E) (E) (E) (E)
                 (A1) (A1) (E) (E) (A1) (E) (E) (A2) (E) (E) (A1)
                 (E) (E) (A1) (E) (E) (A1) (A2) (E) (E) (E) (E)
                 (A1) (E) (E) (E) (E) (A1) (E) (E) (A2) (E) (E)
                 (A1) (A2) (E) (E) (A1) (E) (E) (A2) (A1) (E) (E)
                 (E) (E) (A1) (A2) (E) (E) (E) (E) (A1) (A2) (A1)
                 (E) (E) (E) (E) (E) (E) (A2) (E) (E) (A1) (A2)
                 (A1) (E) (E) (A1) (E) (E) (E) (E) (E) (E) (A2)
                 (A1) (E) (E) (A2) (E) (E) (A1) (E) (E) (A2) (E)
                 (E) (A1) (E) (E) (E) (E) (A1) (E) (E) (A2) (A1)
                 (E) (E) (A2) (A1) (A2) (E) (E) (E) (E) (A1) (E)
                 (E) (E) (E) (A2) (A1) (E) (E) (A1) (E) (E) (E)
                 (E) (E) (E) (A1) (A2) (E) (E) (A1) (A2) (A1) (E)
                 (E) (E) (E) (A1) (E) (E) (A2) (E) (E) (A2) (A1)
                 (E) (E) (A1) (E) (E) (E) (E) (A1) (A2) (E) (E)
                 (A1) (E) (E) (E) (E) (A1) (E) (E) (A2) (A1) (E)
                 (E) (E) (E) (A2) (E) (E) (E) (E) (A1) (A1) (A2)
                 (E) (E) (E) (E) (E) (E) (A1) (E) (E) (A2) (E)
                 (E) (A1) (E) (E) (A1) (E) (E) (A2) (E) (E) (A1)
                 (A2) (E) (E) (A1) (E) (E) (E) (E) (A1) (A2) (E)
                 (E) (E) (E) (A2) (E) (E) (A1) (A1) (E) (E) (A2)
                 (E) (E) (A1) (E) (E) (E) (E) (A1) (A2) (E) (E)
                 (E) (E) (A1) (E) (E) (A1) (A2) (E) (E) (E) (E)
                 (A2) (A1) (A2) (E) (E) (E) (E) (E) (E) (A1) (E)
                 (E) (A1) (E) (E) (A1) (A2) (E) (E) (E) (E) (A2)
                 (E) (E) (A1) (E) (E) (A1) (E) (E) (A1) (A1) (E)
                 (E) (E) (E) (E) (E) (A2) (A1) (E) (E) (A2) (A1)
                 (E) (E) (A2) (E) (E) (A1) (A1) (E) (E) (A1) (A1)
                 (E) (E) (A1) (A1) (E) (E)
 The electronic state is 1-A1.
 Alpha  occ. eigenvalues --  -10.53940 -10.52207 -10.52207 -10.52205  -0.90205
 Alpha  occ. eigenvalues --   -0.77233  -0.77233  -0.63944  -0.53383  -0.49824
 Alpha  occ. eigenvalues --   -0.49824  -0.44652  -0.44652  -0.42468  -0.38486
 Alpha  occ. eigenvalues --   -0.38486  -0.37955
 Alpha virt. eigenvalues --    0.01036   0.03184   0.03184   0.03515   0.07658
 Alpha virt. eigenvalues --    0.08088   0.08088   0.10162   0.10162   0.11436
 Alpha virt. eigenvalues --    0.13797   0.13797   0.14556   0.14918   0.14918
 Alpha virt. eigenvalues --    0.15552   0.18854   0.18854   0.19097   0.20666
 Alpha virt. eigenvalues --    0.21548   0.21548   0.22042   0.23049   0.23449
 Alpha virt. eigenvalues --    0.23449   0.25222   0.25228   0.25228   0.27265
 Alpha virt. eigenvalues --    0.27602   0.27602   0.29445   0.29445   0.29722
 Alpha virt. eigenvalues --    0.30429   0.30429   0.32588   0.32588   0.32864
 Alpha virt. eigenvalues --    0.33041   0.34010   0.34010   0.35826   0.36138
 Alpha virt. eigenvalues --    0.36138   0.36911   0.36911   0.37289   0.37289
 Alpha virt. eigenvalues --    0.38112   0.38421   0.38421   0.38602   0.40176
 Alpha virt. eigenvalues --    0.41604   0.43085   0.43423   0.43423   0.45543
 Alpha virt. eigenvalues --    0.45543   0.47163   0.47163   0.47788   0.49142
 Alpha virt. eigenvalues --    0.49270   0.50311   0.50311   0.51974   0.51987
 Alpha virt. eigenvalues --    0.51987   0.56602   0.56602   0.57183   0.59695
 Alpha virt. eigenvalues --    0.59695   0.60351   0.60351   0.60757   0.62045
 Alpha virt. eigenvalues --    0.65908   0.66711   0.66711   0.68165   0.68165
 Alpha virt. eigenvalues --    0.70489   0.70489   0.72726   0.73498   0.80557
 Alpha virt. eigenvalues --    0.83989   0.83989   0.84419   0.86515   0.86515
 Alpha virt. eigenvalues --    0.89031   0.89031   0.90999   0.90999   0.91376
 Alpha virt. eigenvalues --    0.92035   0.94103   0.95799   0.96223   0.96223
 Alpha virt. eigenvalues --    0.97446   0.99036   0.99036   1.02177   1.02177
 Alpha virt. eigenvalues --    1.04875   1.05634   1.05634   1.06035   1.10095
 Alpha virt. eigenvalues --    1.10095   1.11612   1.13524   1.13524   1.15422
 Alpha virt. eigenvalues --    1.15422   1.16506   1.17443   1.19527   1.19527
 Alpha virt. eigenvalues --    1.23442   1.23618   1.23618   1.27198   1.27198
 Alpha virt. eigenvalues --    1.29446   1.31545   1.33641   1.33641   1.34461
 Alpha virt. eigenvalues --    1.35610   1.35610   1.43295   1.43295   1.44977
 Alpha virt. eigenvalues --    1.46293   1.46293   1.49350   1.51777   1.51777
 Alpha virt. eigenvalues --    1.53394   1.56723   1.56723   1.57732   1.59259
 Alpha virt. eigenvalues --    1.63264   1.64468   1.64468   1.68956   1.68956
 Alpha virt. eigenvalues --    1.70950   1.84619   1.84619   1.91255   1.91255
 Alpha virt. eigenvalues --    1.95158   1.95778   1.98475   2.00682   2.00682
 Alpha virt. eigenvalues --    2.04598   2.04598   2.07250   2.09594   2.09594
 Alpha virt. eigenvalues --    2.10349   2.12869   2.13808   2.13808   2.13982
 Alpha virt. eigenvalues --    2.15266   2.15266   2.18899   2.19495   2.19495
 Alpha virt. eigenvalues --    2.20814   2.20814   2.20874   2.23761   2.25137
 Alpha virt. eigenvalues --    2.25419   2.25419   2.29327   2.29327   2.32030
 Alpha virt. eigenvalues --    2.32030   2.35476   2.37072   2.37072   2.39375
 Alpha virt. eigenvalues --    2.40012   2.41831   2.41831   2.43924   2.46077
 Alpha virt. eigenvalues --    2.51408   2.51408   2.56024   2.56024   2.56476
 Alpha virt. eigenvalues --    2.58110   2.58110   2.59562   2.64718   2.64718
 Alpha virt. eigenvalues --    2.67549   2.68384   2.68384   2.68759   2.74631
 Alpha virt. eigenvalues --    2.74631   2.77354   2.77354   2.82567   2.82567
 Alpha virt. eigenvalues --    2.84082   2.86007   2.86007   2.87003   2.87003
 Alpha virt. eigenvalues --    2.90791   2.91684   2.92202   2.92202   2.94705
 Alpha virt. eigenvalues --    2.94705   2.99576   3.00112   3.01474   3.01474
 Alpha virt. eigenvalues --    3.05500   3.05500   3.05624   3.05820   3.05820
 Alpha virt. eigenvalues --    3.09107   3.10640   3.11861   3.11861   3.22953
 Alpha virt. eigenvalues --    3.22953   3.23636   3.25535   3.27235   3.29553
 Alpha virt. eigenvalues --    3.29553   3.30554   3.30554   3.30813   3.33658
 Alpha virt. eigenvalues --    3.36232   3.36232   3.36415   3.42945   3.42945
 Alpha virt. eigenvalues --    3.43748   3.45798   3.45798   3.51741   3.55604
 Alpha virt. eigenvalues --    3.55604   3.58436   3.59319   3.59319   3.67638
 Alpha virt. eigenvalues --    3.70983   3.73015   3.73015   3.80119   3.80119
 Alpha virt. eigenvalues --    3.80605   3.86250   3.86250   3.89780   3.89780
 Alpha virt. eigenvalues --    3.91706   3.92250   3.92250   3.97339   3.99540
 Alpha virt. eigenvalues --    3.99540   4.01017   4.04071   4.10181   4.10181
 Alpha virt. eigenvalues --    4.22965   4.32701   4.32701   4.35370   4.36234
 Alpha virt. eigenvalues --    4.46819   4.46819   4.71798   4.71798   4.78103
 Alpha virt. eigenvalues --    4.83291   5.07141   5.07141   5.11467   5.11467
 Alpha virt. eigenvalues --    5.22648   5.39188   5.42555   5.42574   5.42574
 Alpha virt. eigenvalues --    5.43682   5.43682   5.51617   5.51617   5.53211
 Alpha virt. eigenvalues --    5.56289   5.56289   5.60261   5.65706   5.66781
 Alpha virt. eigenvalues --    5.68422   5.68422   5.72704   5.75278   5.75278
 Alpha virt. eigenvalues --    5.76437   5.76437   5.78456   5.78456   5.79482
 Alpha virt. eigenvalues --    5.81231   5.86012   5.86012   5.86104   5.89534
 Alpha virt. eigenvalues --    5.89534   5.90039   5.96036   5.96036   5.96677
 Alpha virt. eigenvalues --    5.99268   5.99268   6.01314   6.02564   6.02564
 Alpha virt. eigenvalues --    6.08314   6.08314   6.08687   6.11735   6.11735
 Alpha virt. eigenvalues --    6.12778   6.18888   6.19049   6.19049   6.19850
 Alpha virt. eigenvalues --    6.21190   6.23580   6.24783   6.24783   6.26163
 Alpha virt. eigenvalues --    6.26163   6.28920   6.30274   6.30274   6.35279
 Alpha virt. eigenvalues --    6.35279   6.36739   6.37375   6.45541   6.45541
 Alpha virt. eigenvalues --    6.48907   6.50369   6.50369   6.52159   6.52159
 Alpha virt. eigenvalues --    6.58223   6.58223   6.59652   6.66070   6.66176
 Alpha virt. eigenvalues --    6.66176   6.71806   6.75900   6.77412   6.77773
 Alpha virt. eigenvalues --    6.77773   6.80399   6.80399   6.89084   6.89935
 Alpha virt. eigenvalues --    6.89935   6.97544   6.98135   6.98135   6.98146
 Alpha virt. eigenvalues --    6.98252   6.98680   6.98680   7.10090   7.17071
 Alpha virt. eigenvalues --    7.17071   7.19786   7.19786   7.20161   7.24410
 Alpha virt. eigenvalues --    7.25609   7.25609   7.30475   7.33287   7.33287
 Alpha virt. eigenvalues --    7.37363   7.37363   7.38142   7.43480   7.43480
 Alpha virt. eigenvalues --    7.48243   7.49608   7.51024   7.51024   7.52802
 Alpha virt. eigenvalues --    7.52802   7.54515   7.57247   7.57247   7.57922
 Alpha virt. eigenvalues --    7.57922   7.58298   7.59742   7.63627   7.66850
 Alpha virt. eigenvalues --    7.66850   7.69326   7.69326   7.73567   7.73567
 Alpha virt. eigenvalues --    7.76418   7.76993   7.76993   7.81482   7.84135
 Alpha virt. eigenvalues --    7.84135   7.85922   7.86861   7.86861   7.91953
 Alpha virt. eigenvalues --    7.92261   7.92261   7.97170   7.99911   7.99911
 Alpha virt. eigenvalues --    8.00906   8.05668   8.06228   8.06228   8.07762
 Alpha virt. eigenvalues --    8.18561   8.18561   8.21796   8.21796   8.21835
 Alpha virt. eigenvalues --    8.25038   8.25377   8.25377   8.27523   8.27523
 Alpha virt. eigenvalues --    8.28218   8.31303   8.31303   8.34926   8.36806
 Alpha virt. eigenvalues --    8.39202   8.39202   8.40673   8.42502   8.42502
 Alpha virt. eigenvalues --    8.43256   8.46031   8.46031   8.50241   8.50241
 Alpha virt. eigenvalues --    8.58739   8.59694   8.61029   8.61029   8.64715
 Alpha virt. eigenvalues --    8.64715   8.67622   8.74160   8.74160   8.78720
 Alpha virt. eigenvalues --    8.81226   8.85121   8.85121   8.85637   8.85637
 Alpha virt. eigenvalues --    8.85645   8.89499   8.90061   8.90063   8.90063
 Alpha virt. eigenvalues --    8.98490   8.98490   9.03638   9.03638   9.16235
 Alpha virt. eigenvalues --    9.29110   9.29110   9.54918   9.57477   9.57477
 Alpha virt. eigenvalues --    9.60349   9.63191   9.63515   9.63515   9.65095
 Alpha virt. eigenvalues --    9.65095   9.71820   9.72659   9.72659   9.74446
 Alpha virt. eigenvalues --    9.76740   9.76740   9.81350   9.87223   9.87223
 Alpha virt. eigenvalues --    9.88972  10.00679  10.06662  10.06662  10.15525
 Alpha virt. eigenvalues --   10.15525  10.17466  10.17466  10.21646  10.22008
 Alpha virt. eigenvalues --   10.33550  10.33550  10.48094  11.94252  12.01379
 Alpha virt. eigenvalues --   12.01379  12.05689  12.14508  12.14508  12.80509
 Alpha virt. eigenvalues --   13.11151  13.15935  13.15935  29.05864  29.14345
 Alpha virt. eigenvalues --   29.25728  29.25728 146.56624 146.69601 146.76949
 Alpha virt. eigenvalues --  146.76949
          Condensed to atoms (all electrons):
               1          2          3          4          5          6
     1  C    5.964744   0.347565   0.208563   0.208563   0.208563  -0.040976
     2  H    0.347565   0.419454  -0.041855  -0.041855  -0.041855   0.001944
     3  C    0.208563  -0.041855   5.941471  -0.166805  -0.166805   0.347796
     4  C    0.208563  -0.041855  -0.166805   5.941471  -0.166805  -0.011588
     5  C    0.208563  -0.041855  -0.166805  -0.166805   5.941471  -0.011588
     6  H   -0.040976   0.001944   0.347796  -0.011588  -0.011588   0.442265
     7  H   -0.040976   0.001944  -0.011588   0.347796  -0.011588  -0.006373
     8  H   -0.040976   0.001944  -0.011588  -0.011588   0.347796  -0.006373
     9  H   -0.062889   0.001907   0.364314  -0.003263   0.006796  -0.016424
    10  H   -0.062889   0.001907   0.364314   0.006796  -0.003263  -0.016424
    11  H   -0.062889   0.001907   0.006796   0.364314  -0.003263   0.001150
    12  H   -0.062889   0.001907  -0.003263   0.364314   0.006796  -0.000586
    13  H   -0.062889   0.001907  -0.003263   0.006796   0.364314  -0.000586
    14  H   -0.062889   0.001907   0.006796  -0.003263   0.364314   0.001150
               7          8          9         10         11         12
     1  C   -0.040976  -0.040976  -0.062889  -0.062889  -0.062889  -0.062889
     2  H    0.001944   0.001944   0.001907   0.001907   0.001907   0.001907
     3  C   -0.011588  -0.011588   0.364314   0.364314   0.006796  -0.003263
     4  C    0.347796  -0.011588  -0.003263   0.006796   0.364314   0.364314
     5  C   -0.011588   0.347796   0.006796  -0.003263  -0.003263   0.006796
     6  H   -0.006373  -0.006373  -0.016424  -0.016424   0.001150  -0.000586
     7  H    0.442265  -0.006373  -0.000586   0.001150  -0.016424  -0.016424
     8  H   -0.006373   0.442265   0.001150  -0.000586  -0.000586   0.001150
     9  H   -0.000586   0.001150   0.452492  -0.016743   0.000668  -0.003384
    10  H    0.001150  -0.000586  -0.016743   0.452492   0.000082   0.000668
    11  H   -0.016424  -0.000586   0.000668   0.000082   0.452492  -0.016743
    12  H   -0.016424   0.001150  -0.003384   0.000668  -0.016743   0.452492
    13  H    0.001150  -0.016424   0.000668  -0.003384   0.000668   0.000082
    14  H   -0.000586  -0.016424   0.000082   0.000668  -0.003384   0.000668
              13         14
     1  C   -0.062889  -0.062889
     2  H    0.001907   0.001907
     3  C   -0.003263   0.006796
     4  C    0.006796  -0.003263
     5  C    0.364314   0.364314
     6  H   -0.000586   0.001150
     7  H    0.001150  -0.000586
     8  H   -0.016424  -0.016424
     9  H    0.000668   0.000082
    10  H   -0.003384   0.000668
    11  H    0.000668  -0.003384
    12  H    0.000082   0.000668
    13  H    0.452492  -0.016743
    14  H   -0.016743   0.452492
 Mulliken charges:
               1
     1  C   -0.437738
     2  H    0.341269
     3  C   -0.834882
     4  C   -0.834882
     5  C   -0.834882
     6  H    0.316613
     7  H    0.316613
     8  H    0.316613
     9  H    0.275213
    10  H    0.275213
    11  H    0.275213
    12  H    0.275213
    13  H    0.275213
    14  H    0.275213
 Sum of Mulliken charges =  -0.00000
 Mulliken charges with hydrogens summed into heavy atoms:
               1
     1  C   -0.096469
     3  C    0.032156
     4  C    0.032156
     5  C    0.032156
 Electronic spatial extent (au):  <R**2>=            353.8829
 Charge=             -0.0000 electrons
 Dipole moment (field-independent basis, Debye):
    X=              0.0000    Y=             -0.0000    Z=              0.1370  Tot=              0.1370
 Quadrupole moment (field-independent basis, Debye-Ang):
   XX=            -28.9917   YY=            -28.9917   ZZ=            -28.4124
   XY=             -0.0000   XZ=             -0.0000   YZ=              0.0000
 Traceless Quadrupole moment (field-independent basis, Debye-Ang):
   XX=             -0.1931   YY=             -0.1931   ZZ=              0.3862
   XY=             -0.0000   XZ=             -0.0000   YZ=              0.0000
 Octapole moment (field-independent basis, Debye-Ang**2):
  XXX=              0.0000  YYY=             -1.8382  ZZZ=             -0.7505  XYY=              0.0000
  XXY=              1.8382  XXZ=              1.4025  XZZ=              0.0000  YZZ=              0.0000
  YYZ=              1.4025  XYZ=              0.0000
 Hexadecapole moment (field-independent basis, Debye-Ang**3):
 XXXX=           -217.9358 YYYY=           -217.9358 ZZZZ=            -65.9403 XXXY=             -0.0000
 XXXZ=              0.0000 YYYX=              0.0000 YYYZ=             -1.1112 ZZZX=             -0.0000
 ZZZY=              0.0000 XXYY=            -72.6453 XXZZ=            -48.5827 YYZZ=            -48.5827
 XXYZ=              1.1112 YYXZ=              0.0000 ZZXY=              0.0000
 N-N= 1.347108377041D+02 E-N=-6.354933949101D+02  KE= 1.576357464024D+02
 PrsmSu:  requested number of processors reduced to:  20 ShMem   1 Linda.
 No NMR shielding tensors so no spin-rotation constants.
 Leave Link  601 at Sat Apr 17 21:33:03 2021, MaxMem=   104857600 cpu:             583.9 elap:              13.0
 (Enter /s/ls4/users/knvvv/bin/g16sse/l9999.exe)

 Test job not archived.
 1\1\GINC-N154\Stability\RM062X\Gen\C4H10\KNVVV\17-Apr-2021\0\\#P M062X
 /GEN Integral=UltraFineGrid SCF=NoSymm Stable=(RExt, Opt) IOp(1/33=1)\
 \Database calculations.\\0,1\C,0,0.,0.,0.373683\H,0,0.,0.,1.468801\C,0
 ,0.,1.455026,-0.095588\C,0,1.26009,-0.727513,-0.095588\C,0,-1.26009,-0
 .727513,-0.095588\H,0,0.,1.507011,-1.187368\H,0,1.30511,-0.753505,-1.1
 87368\H,0,-1.30511,-0.753505,-1.187368\H,0,0.882607,1.988055,0.261965\
 H,0,-0.882607,1.988055,0.261965\H,0,1.280403,-1.758387,0.261965\H,0,2.
 16301,-0.229668,0.261965\H,0,-2.16301,-0.229668,0.261965\H,0,-1.280403
 ,-1.758387,0.261965\\Version=ES64L-G16RevA.03\State=1-A1\HF=-158.43958
 96\RMSD=4.105e-09\Dipole=0.,0.,0.0539114\Quadrupole=-0.1435799,-0.1435
 799,0.2871598,0.,0.,0.\PG=C03V [C3(C1H1),3SGV(C1H1),X(H6)]\\@


 EDUCATION IS NOT TRAINING BUT RATHER THE PROCESS THAT EQUIPS YOU TO
 ENTERTAIN YOURSELF, A FRIEND, OR AN IDEA.  -- WALLACE STERLING
 Job cpu time:       1 days 15 hours 41 minutes  0.3 seconds.
 Elapsed time:       0 days  1 hours  9 minutes  5.0 seconds.
 File lengths (MBytes):  RWF=    506 Int=      0 D2E=      0 Chk=     36 Scr=      1
 Normal termination of Gaussian 16 at Sat Apr 17 21:33:04 2021.
