 Entering Gaussian System, Link 0=/s/ls4/users/knvvv/bin/g16sse/g16
 Input=data/database/M062X--def2-QZVP--Z_012_de2-QZVP_O.gjf
 Output=data/database/M062X--def2-QZVP--Z_012_de2-QZVP_O.log
 Initial command:
 /s/ls4/users/knvvv/bin/g16sse/l1.exe "/s/ls4/users/knvvv/bin/scratch/Gau-28805.inp" -scrdir="/s/ls4/users/knvvv/bin/scratch/"
 Entering Link 1 = /s/ls4/users/knvvv/bin/g16sse/l1.exe PID=     28806.
  
 Copyright (c) 1988,1990,1992,1993,1995,1998,2003,2009,2016,
            Gaussian, Inc.  All Rights Reserved.
  
 This is part of the Gaussian(R) 16 program.  It is based on
 the Gaussian(R) 09 system (copyright 2009, Gaussian, Inc.),
 the Gaussian(R) 03 system (copyright 2003, Gaussian, Inc.),
 the Gaussian(R) 98 system (copyright 1998, Gaussian, Inc.),
 the Gaussian(R) 94 system (copyright 1995, Gaussian, Inc.),
 the Gaussian 92(TM) system (copyright 1992, Gaussian, Inc.),
 the Gaussian 90(TM) system (copyright 1990, Gaussian, Inc.),
 the Gaussian 88(TM) system (copyright 1988, Gaussian, Inc.),
 the Gaussian 86(TM) system (copyright 1986, Carnegie Mellon
 University), and the Gaussian 82(TM) system (copyright 1983,
 Carnegie Mellon University). Gaussian is a federally registered
 trademark of Gaussian, Inc.
  
 This software contains proprietary and confidential information,
 including trade secrets, belonging to Gaussian, Inc.
  
 This software is provided under written license and may be
 used, copied, transmitted, or stored only in accord with that
 written license.
  
 The following legend is applicable only to US Government
 contracts under FAR:
  
                    RESTRICTED RIGHTS LEGEND
  
 Use, reproduction and disclosure by the US Government is
 subject to restrictions as set forth in subparagraphs (a)
 and (c) of the Commercial Computer Software - Restricted
 Rights clause in FAR 52.227-19.
  
 Gaussian, Inc.
 340 Quinnipiac St., Bldg. 40, Wallingford CT 06492
  
  
 ---------------------------------------------------------------
 Warning -- This program may not be used in any manner that
 competes with the business of Gaussian, Inc. or will provide
 assistance to any competitor of Gaussian, Inc.  The licensee
 of this program is prohibited from giving any competitor of
 Gaussian, Inc. access to this program.  By using this program,
 the user acknowledges that Gaussian, Inc. is engaged in the
 business of creating and licensing software in the field of
 computational chemistry and represents and warrants to the
 licensee that it is not a competitor of Gaussian, Inc. and that
 it will not use this program in any manner prohibited above.
 ---------------------------------------------------------------
  

 Cite this work as:
 Gaussian 16, Revision A.03,
 M. J. Frisch, G. W. Trucks, H. B. Schlegel, G. E. Scuseria, 
 M. A. Robb, J. R. Cheeseman, G. Scalmani, V. Barone, 
 G. A. Petersson, H. Nakatsuji, X. Li, M. Caricato, A. V. Marenich, 
 J. Bloino, B. G. Janesko, R. Gomperts, B. Mennucci, H. P. Hratchian, 
 J. V. Ortiz, A. F. Izmaylov, J. L. Sonnenberg, D. Williams-Young, 
 F. Ding, F. Lipparini, F. Egidi, J. Goings, B. Peng, A. Petrone, 
 T. Henderson, D. Ranasinghe, V. G. Zakrzewski, J. Gao, N. Rega, 
 G. Zheng, W. Liang, M. Hada, M. Ehara, K. Toyota, R. Fukuda, 
 J. Hasegawa, M. Ishida, T. Nakajima, Y. Honda, O. Kitao, H. Nakai, 
 T. Vreven, K. Throssell, J. A. Montgomery, Jr., J. E. Peralta, 
 F. Ogliaro, M. J. Bearpark, J. J. Heyd, E. N. Brothers, K. N. Kudin, 
 V. N. Staroverov, T. A. Keith, R. Kobayashi, J. Normand, 
 K. Raghavachari, A. P. Rendell, J. C. Burant, S. S. Iyengar, 
 J. Tomasi, M. Cossi, J. M. Millam, M. Klene, C. Adamo, R. Cammi, 
 J. W. Ochterski, R. L. Martin, K. Morokuma, O. Farkas, 
 J. B. Foresman, and D. J. Fox, Gaussian, Inc., Wallingford CT, 2016.
 
 ******************************************
 Gaussian 16:  ES64L-G16RevA.03 25-Dec-2016
                18-Apr-2021 
 ******************************************
 %RWF=temp12_49134,70GB
 %nprocshared=48
 Will use up to   48 processors via shared memory.
 Default route: MaxDisk=80GB
 ----------------------------------------------------------------------
 #P M062X/Def2QZVP Integral=UltraFineGrid SCF=NoSymm Stable=(RExt, Opt)
  IOp(1/33=1)
 ----------------------------------------------------------------------
 1/33=1,38=1,172=1/1;
 2/12=2,17=6,18=5,40=1/2;
 3/5=45,7=101,11=2,25=1,30=1,74=-55,75=-5/1,2,3;
 4/9=2/1;
 5/5=2,38=5/2;
 6/7=2,8=2,9=2,10=2,28=1/1;
 8/6=1,10=90,11=11/1;
 9/8=-3,42=1,46=1/14;
 5/5=2,8=3,17=40,38=5/8(-2);
 6/7=2,8=2,9=2,10=2,28=1/1;
 99/5=1,9=1/99;
 Leave Link    1 at Sun Apr 18 07:15:41 2021, MaxMem=           0 cpu:               8.3 elap:               0.2
 (Enter /s/ls4/users/knvvv/bin/g16sse/l101.exe)
 ONIOM data not found on unit 2.
 ----------------------
 Database calculations.
 ----------------------
 TstMul:  ICh=     0
 TstMul:  Mul=     3
 TstMul:  ICh=     0
 TstMul:  Mul=     3
 Symbolic Z-matrix:
 Charge =  0 Multiplicity = 3
 O                     0.        0.        0. 
 
 RdStrC is calling ZToCFu for IStruc=1 NZ=     1.
 PrtBox:  NBox=     1 Levels=  0 BoxLen=    8.00 SMaxX=        0.00
          Shift=            0.000000            0.000000            0.000000
 Box      1 Number                   0 centers from      1 to      1:
 After GenITR:
 ITRead=  0
 MicOpt= -1
 ITRead=  0
 MicOpt= -1
 NAtoms=      1 NQM=        1 NQMF=       0 NMMI=      0 NMMIF=      0
                NMic=       0 NMicF=      0.
                    Isotopes and Nuclear Properties:
 (Nuclear quadrupole moments (NQMom) in fm**2, nuclear magnetic moments (NMagM)
  in nuclear magnetons)

  Atom         1
 IAtWgt=          16
 AtmWgt=  15.9949146
 NucSpn=           0
 AtZEff=  -0.0000000
 NQMom=    0.0000000
 NMagM=    0.0000000
 AtZNuc=   8.0000000
 No MM parameters found.
 Leave Link  101 at Sun Apr 18 07:15:41 2021, MaxMem=   104857600 cpu:               6.5 elap:               0.2
 (Enter /s/ls4/users/knvvv/bin/g16sse/l202.exe)
                          Input orientation:                          
 ---------------------------------------------------------------------
 Center     Atomic      Atomic             Coordinates (Angstroms)
 Number     Number       Type             X           Y           Z
 ---------------------------------------------------------------------
      1          8           0        0.000000    0.000000    0.000000
 ---------------------------------------------------------------------
 Stoichiometry    O(3)
 Framework group  OH[O(O)]
 Deg. of freedom     0
 Full point group                 OH      NOp  48
 Largest Abelian subgroup         D2H     NOp   8
 Largest concise Abelian subgroup C1      NOp   1
                         Standard orientation:                         
 ---------------------------------------------------------------------
 Center     Atomic      Atomic             Coordinates (Angstroms)
 Number     Number       Type             X           Y           Z
 ---------------------------------------------------------------------
      1          8           0        0.000000    0.000000    0.000000
 ---------------------------------------------------------------------
 Leave Link  202 at Sun Apr 18 07:15:42 2021, MaxMem=   104857600 cpu:              37.2 elap:               0.8
 (Enter /s/ls4/users/knvvv/bin/g16sse/l301.exe)
 Standard basis: def2QZVP (5D, 7F)
 Ernie: Thresh=  0.10000D-02 Tol=  0.10000D-05 Strict=F.
 There are    22 symmetry adapted cartesian basis functions of AG  symmetry.
 There are     6 symmetry adapted cartesian basis functions of B1G symmetry.
 There are     6 symmetry adapted cartesian basis functions of B2G symmetry.
 There are     6 symmetry adapted cartesian basis functions of B3G symmetry.
 There are     2 symmetry adapted cartesian basis functions of AU  symmetry.
 There are    10 symmetry adapted cartesian basis functions of B1U symmetry.
 There are    10 symmetry adapted cartesian basis functions of B2U symmetry.
 There are    10 symmetry adapted cartesian basis functions of B3U symmetry.
 There are    16 symmetry adapted basis functions of AG  symmetry.
 There are     5 symmetry adapted basis functions of B1G symmetry.
 There are     5 symmetry adapted basis functions of B2G symmetry.
 There are     5 symmetry adapted basis functions of B3G symmetry.
 There are     2 symmetry adapted basis functions of AU  symmetry.
 There are     8 symmetry adapted basis functions of B1U symmetry.
 There are     8 symmetry adapted basis functions of B2U symmetry.
 There are     8 symmetry adapted basis functions of B3U symmetry.
    57 basis functions,    92 primitive gaussians,    72 cartesian basis functions
     5 alpha electrons        3 beta electrons
       nuclear repulsion energy         0.0000000000 Hartrees.
 IExCor= 4336 DFT=T Ex+Corr=M062X ExCW=0 ScaHFX=  0.540000
 ScaDFX=  1.000000  1.000000  1.000000  1.000000 ScalE2=  1.000000  1.000000
 IRadAn=      5 IRanWt=     -1 IRanGd=            0 ICorTp=0 IEmpDi=  4
 NAtoms=    1 NActive=    1 NUniq=    1 SFac= 1.00D+00 NAtFMM=   60 NAOKFM=F Big=F
 Integral buffers will be    131072 words long.
 Raffenetti 2 integral format.
 Two-electron integral symmetry is turned on.
 Leave Link  301 at Sun Apr 18 07:15:42 2021, MaxMem=   104857600 cpu:               5.2 elap:               0.1
 (Enter /s/ls4/users/knvvv/bin/g16sse/l302.exe)
 NPDir=0 NMtPBC=     1 NCelOv=     1 NCel=       1 NClECP=     1 NCelD=      1
         NCelK=      1 NCelE2=     1 NClLst=     1 CellRange=     0.0.
 One-electron integrals computed using PRISM.
 One-electron integral symmetry used in STVInt
 PrsmSu:  requested number of processors reduced to:   4 ShMem   1 Linda.
 PrsmSu:  requested number of processors reduced to:  21 ShMem   1 Linda.
  48 Symmetry operations used in ECPInt.
 ECPInt:  NShTT=     153 NPrTT=     474 LenC2=     154 LenP2D=     474.
 LDataN:  DoStor=T MaxTD1= 8 Len=  415
 NBasis=    57 RedAO= T EigKep=  5.81D-03  NBF=    16     5     5     5     2     8     8     8
 NBsUse=    57 1.00D-06 EigRej= -1.00D+00 NBFU=    16     5     5     5     2     8     8     8
 Precomputing XC quadrature grid using
 IXCGrd= 4 IRadAn=           5 IRanWt=          -1 IRanGd=           0 AccXCQ= 0.00D+00.
 Generated NRdTot=       0 NPtTot=           0 NUsed=           0 NTot=          32
 NSgBfM=    72    72    72    72    72 MxSgAt=     1 MxSgA2=     1.
 Leave Link  302 at Sun Apr 18 07:15:59 2021, MaxMem=   104857600 cpu:             805.1 elap:              17.2
 (Enter /s/ls4/users/knvvv/bin/g16sse/l303.exe)
 DipDrv:  MaxL=1.
 Leave Link  303 at Sun Apr 18 07:16:00 2021, MaxMem=   104857600 cpu:              19.0 elap:               0.4
 (Enter /s/ls4/users/knvvv/bin/g16sse/l401.exe)
 SCF N**3 symmetry information disabled.
 ExpMin= 1.29D-01 ExpMax= 1.17D+05 ExpMxC= 1.13D+03 IAcc=3 IRadAn=         5 AccDes= 0.00D+00
 Harris functional with IExCor= 1009 and IRadAn=       5 diagonalized for initial guess.
 HarFok:  IExCor= 1009 AccDes= 0.00D+00 IRadAn=         5 IDoV= 1 UseB2=F ITyADJ=14
 ICtDFT=  3500011 ScaDFX=  1.000000  1.000000  1.000000  1.000000
 FoFCou: FMM=F IPFlag=           0 FMFlag=      100000 FMFlg1=           0
         NFxFlg=           0 DoJE=T BraDBF=F KetDBF=T FulRan=T
         wScrn=  0.000000 ICntrl=       500 IOpCl=  0 I1Cent=   200000004 NGrid=           0
         NMat0=    1 NMatS0=      1 NMatT0=    0 NMatD0=    1 NMtDS0=    0 NMtDT0=    0
 Petite list used in FoFCou.
 CoulSu:  requested number of processors reduced to:  21 ShMem   1 Linda.
 CoulSu:  requested number of processors reduced to:  21 ShMem   1 Linda.
 CoulSu:  requested number of processors reduced to:  21 ShMem   1 Linda.
 CoulSu:  requested number of processors reduced to:  21 ShMem   1 Linda.
 Harris En= -74.9354675305304    
 JPrj=0 DoOrth=F DoCkMO=F.
 Initial guess orbital symmetries:
 Alpha Orbitals:
       Occupied  (A1G) (A1G) (T1U) (T1U) (T1U)
       Virtual   (T1U) (T1U) (T1U) (A1G) (T2G) (T2G) (T2G) (EG)
                 (EG) (T1U) (T1U) (T1U) (A1G) (T2U) (T2U) (T2U)
                 (A2U) (T1U) (T1U) (T1U) (T2G) (T2G) (T2G) (EG)
                 (EG) (T1U) (T1U) (T1U) (T1G) (T1G) (T1G) (T2G)
                 (T2G) (T2G) (EG) (EG) (A1G) (T2U) (T2U) (T2U)
                 (A2U) (T1U) (T1U) (T1U) (T2G) (T2G) (T2G) (EG)
                 (EG) (A1G) (A1G) (A1G)
 Beta  Orbitals:
       Occupied  (A1G) (A1G) (T1U)
       Virtual   (T1U) (T1U) (T1U) (T1U) (T1U) (A1G) (T2G) (T2G)
                 (T2G) (EG) (EG) (T1U) (T1U) (T1U) (A1G) (T2U)
                 (T2U) (T2U) (A2U) (T1U) (T1U) (T1U) (T2G) (T2G)
                 (T2G) (EG) (EG) (T1U) (T1U) (T1U) (T1G) (T1G)
                 (T1G) (T2G) (T2G) (T2G) (EG) (EG) (A1G) (T2U)
                 (T2U) (T2U) (A2U) (T1U) (T1U) (T1U) (T2G) (T2G)
                 (T2G) (EG) (EG) (A1G) (A1G) (A1G)
 Initial guess <Sx>= 0.0000 <Sy>= 0.0000 <Sz>= 1.0000 <S**2>= 2.0000 S= 1.0000
 Leave Link  401 at Sun Apr 18 07:16:09 2021, MaxMem=   104857600 cpu:             410.3 elap:               8.9
 (Enter /s/ls4/users/knvvv/bin/g16sse/l502.exe)
 Keep R1 and R2 ints in memory in symmetry-blocked form, NReq=55529561.
 FoFCou: FMM=F IPFlag=           0 FMFlag=           0 FMFlg1=           0
         NFxFlg=           0 DoJE=F BraDBF=F KetDBF=F FulRan=T
         wScrn=  0.000000 ICntrl=       600 IOpCl=  0 I1Cent=           0 NGrid=           0
         NMat0=    1 NMatS0=   1653 NMatT0=    0 NMatD0=    1 NMtDS0=    0 NMtDT0=    0
 Petite list used in FoFCou.
 CoulSu:  requested number of processors reduced to:  22 ShMem   1 Linda.
 UHF open shell SCF:
 Using DIIS extrapolation, IDIIS=  1040.
 NGot=   104857600 LenX=   104476926 LenY=   104471301
 Requested convergence on RMS density matrix=1.00D-08 within 128 cycles.
 Requested convergence on MAX density matrix=1.00D-06.
 Requested convergence on             energy=1.00D-06.
 No special actions if energy rises.
 Integral accuracy reduced to 1.0D-05 until final iterations.

 Cycle   1  Pass 0  IDiag  1:
 Density matrix breaks symmetry, PCut= 1.00D-04
 Density has only Abelian symmetry.
 E= -75.0609140193832    
 DIIS: error= 5.75D-02 at cycle   1 NSaved=   1.
 NSaved= 1 IEnMin= 1 EnMin= -75.0609140193832     IErMin= 1 ErrMin= 5.75D-02
 ErrMax= 5.75D-02  0.00D+00 EMaxC= 1.00D-01 BMatC= 1.47D-01 BMatP= 1.47D-01
 IDIUse=3 WtCom= 4.25D-01 WtEn= 5.75D-01
 Coeff-Com:  0.100D+01
 Coeff-En:   0.100D+01
 Coeff:      0.100D+01
 Gap=     0.873 Goal=   None    Shift=    0.000
 Gap=     0.321 Goal=   None    Shift=    0.000
 GapD=    0.321 DampG=1.000 DampE=0.500 DampFc=0.5000 IDamp=-1.
 Damping current iteration by 5.00D-01
 RMSDP=1.36D-03 MaxDP=2.07D-02              OVMax= 5.72D-02

 Cycle   2  Pass 0  IDiag  1:
 Density matrix breaks symmetry, PCut= 1.00D-04
 Density has only Abelian symmetry.
 E= -75.0659406194801     Delta-E=       -0.005026600097 Rises=F Damp=T
 DIIS: error= 2.83D-02 at cycle   2 NSaved=   2.
 NSaved= 2 IEnMin= 2 EnMin= -75.0659406194801     IErMin= 2 ErrMin= 2.83D-02
 ErrMax= 2.83D-02  0.00D+00 EMaxC= 1.00D-01 BMatC= 3.52D-02 BMatP= 1.47D-01
 IDIUse=3 WtCom= 7.17D-01 WtEn= 2.83D-01
 Coeff-Com: -0.793D+00 0.179D+01
 Coeff-En:   0.000D+00 0.100D+01
 Coeff:     -0.569D+00 0.157D+01
 Gap=     0.775 Goal=   None    Shift=    0.000
 Gap=     0.304 Goal=   None    Shift=    0.000
 RMSDP=7.64D-04 MaxDP=1.91D-02 DE=-5.03D-03 OVMax= 2.40D-02

 Cycle   3  Pass 0  IDiag  1:
 Density matrix breaks symmetry, PCut= 1.00D-04
 Density has only Abelian symmetry.
 E= -75.0714699907269     Delta-E=       -0.005529371247 Rises=F Damp=F
 DIIS: error= 4.83D-03 at cycle   3 NSaved=   3.
 NSaved= 3 IEnMin= 3 EnMin= -75.0714699907269     IErMin= 3 ErrMin= 4.83D-03
 ErrMax= 4.83D-03  0.00D+00 EMaxC= 1.00D-01 BMatC= 8.64D-04 BMatP= 3.52D-02
 IDIUse=3 WtCom= 9.52D-01 WtEn= 4.83D-02
 Coeff-Com: -0.198D+00 0.359D+00 0.838D+00
 Coeff-En:   0.000D+00 0.000D+00 0.100D+01
 Coeff:     -0.188D+00 0.342D+00 0.846D+00
 Gap=     0.777 Goal=   None    Shift=    0.000
 Gap=     0.305 Goal=   None    Shift=    0.000
 RMSDP=1.35D-04 MaxDP=2.27D-03 DE=-5.53D-03 OVMax= 6.39D-03

 Cycle   4  Pass 0  IDiag  1:
 Density matrix breaks symmetry, PCut= 1.00D-04
 Density has only Abelian symmetry.
 E= -75.0716564102366     Delta-E=       -0.000186419510 Rises=F Damp=F
 DIIS: error= 1.49D-03 at cycle   4 NSaved=   4.
 NSaved= 4 IEnMin= 4 EnMin= -75.0716564102366     IErMin= 4 ErrMin= 1.49D-03
 ErrMax= 1.49D-03  0.00D+00 EMaxC= 1.00D-01 BMatC= 3.79D-05 BMatP= 8.64D-04
 IDIUse=3 WtCom= 9.85D-01 WtEn= 1.49D-02
 Coeff-Com:  0.110D+00-0.212D+00-0.258D+00 0.136D+01
 Coeff-En:   0.000D+00 0.000D+00 0.000D+00 0.100D+01
 Coeff:      0.108D+00-0.208D+00-0.254D+00 0.135D+01
 Gap=     0.773 Goal=   None    Shift=    0.000
 Gap=     0.304 Goal=   None    Shift=    0.000
 RMSDP=6.03D-05 MaxDP=1.36D-03 DE=-1.86D-04 OVMax= 3.47D-03

 Cycle   5  Pass 0  IDiag  1:
 Density matrix breaks symmetry, PCut= 1.00D-04
 Density has only Abelian symmetry.
 E= -75.0716719010687     Delta-E=       -0.000015490832 Rises=F Damp=F
 DIIS: error= 1.15D-04 at cycle   5 NSaved=   5.
 NSaved= 5 IEnMin= 5 EnMin= -75.0716719010687     IErMin= 5 ErrMin= 1.15D-04
 ErrMax= 1.15D-04  0.00D+00 EMaxC= 1.00D-01 BMatC= 4.42D-07 BMatP= 3.79D-05
 IDIUse=3 WtCom= 9.99D-01 WtEn= 1.15D-03
 Coeff-Com: -0.151D-01 0.302D-01 0.188D-01-0.197D+00 0.116D+01
 Coeff-En:   0.000D+00 0.000D+00 0.000D+00 0.000D+00 0.100D+01
 Coeff:     -0.151D-01 0.301D-01 0.188D-01-0.197D+00 0.116D+01
 Gap=     0.774 Goal=   None    Shift=    0.000
 Gap=     0.303 Goal=   None    Shift=    0.000
 RMSDP=5.63D-06 MaxDP=1.29D-04 DE=-1.55D-05 OVMax= 3.09D-04

 Initial convergence to 1.0D-05 achieved.  Increase integral accuracy.
 Cycle   6  Pass 1  IDiag  1:
 Density matrix breaks symmetry, PCut= 1.00D-04
 Density has only Abelian symmetry.
 E= -75.0716778510431     Delta-E=       -0.000005949974 Rises=F Damp=F
 DIIS: error= 1.74D-04 at cycle   1 NSaved=   1.
 NSaved= 1 IEnMin= 1 EnMin= -75.0716778510431     IErMin= 1 ErrMin= 1.74D-04
 ErrMax= 1.74D-04  0.00D+00 EMaxC= 1.00D-01 BMatC= 7.99D-07 BMatP= 7.99D-07
 IDIUse=3 WtCom= 9.98D-01 WtEn= 1.74D-03
 Coeff-Com:  0.100D+01
 Coeff-En:   0.100D+01
 Coeff:      0.100D+01
 Gap=     0.774 Goal=   None    Shift=    0.000
 Gap=     0.303 Goal=   None    Shift=    0.000
 RMSDP=5.63D-06 MaxDP=1.29D-04 DE=-5.95D-06 OVMax= 5.76D-05

 Cycle   7  Pass 1  IDiag  1:
 Density matrix breaks symmetry, PCut= 1.00D-04
 Density has only Abelian symmetry.
 E= -75.0716778918134     Delta-E=       -0.000000040770 Rises=F Damp=F
 DIIS: error= 1.01D-05 at cycle   2 NSaved=   2.
 NSaved= 2 IEnMin= 2 EnMin= -75.0716778918134     IErMin= 2 ErrMin= 1.01D-05
 ErrMax= 1.01D-05  0.00D+00 EMaxC= 1.00D-01 BMatC= 5.08D-09 BMatP= 7.99D-07
 IDIUse=1 WtCom= 1.00D+00 WtEn= 0.00D+00
 Coeff-Com: -0.423D-01 0.104D+01
 Coeff:     -0.423D-01 0.104D+01
 Gap=     0.774 Goal=   None    Shift=    0.000
 Gap=     0.303 Goal=   None    Shift=    0.000
 RMSDP=2.81D-07 MaxDP=1.13D-05 DE=-4.08D-08 OVMax= 1.28D-05

 Cycle   8  Pass 1  IDiag  1:
 Density matrix breaks symmetry, PCut= 1.00D-04
 Density has only Abelian symmetry.
 E= -75.0716778924335     Delta-E=       -0.000000000620 Rises=F Damp=F
 DIIS: error= 2.71D-06 at cycle   3 NSaved=   3.
 NSaved= 3 IEnMin= 3 EnMin= -75.0716778924335     IErMin= 3 ErrMin= 2.71D-06
 ErrMax= 2.71D-06  0.00D+00 EMaxC= 1.00D-01 BMatC= 1.79D-10 BMatP= 5.08D-09
 IDIUse=1 WtCom= 1.00D+00 WtEn= 0.00D+00
 Coeff-Com:  0.178D-02-0.143D+00 0.114D+01
 Coeff:      0.178D-02-0.143D+00 0.114D+01
 Gap=     0.774 Goal=   None    Shift=    0.000
 Gap=     0.303 Goal=   None    Shift=    0.000
 RMSDP=8.70D-08 MaxDP=1.96D-06 DE=-6.20D-10 OVMax= 5.77D-06

 Cycle   9  Pass 1  IDiag  1:
 Density matrix breaks symmetry, PCut= 1.00D-04
 Density has only Abelian symmetry.
 E= -75.0716778924840     Delta-E=       -0.000000000050 Rises=F Damp=F
 DIIS: error= 1.10D-06 at cycle   4 NSaved=   4.
 NSaved= 4 IEnMin= 4 EnMin= -75.0716778924840     IErMin= 4 ErrMin= 1.10D-06
 ErrMax= 1.10D-06  0.00D+00 EMaxC= 1.00D-01 BMatC= 3.12D-11 BMatP= 1.79D-10
 IDIUse=1 WtCom= 1.00D+00 WtEn= 0.00D+00
 Coeff-Com:  0.119D-02-0.642D-01 0.306D+00 0.757D+00
 Coeff:      0.119D-02-0.642D-01 0.306D+00 0.757D+00
 Gap=     0.774 Goal=   None    Shift=    0.000
 Gap=     0.303 Goal=   None    Shift=    0.000
 RMSDP=2.50D-08 MaxDP=5.47D-07 DE=-5.04D-11 OVMax= 1.47D-06

 Cycle  10  Pass 1  IDiag  1:
 Density matrix breaks symmetry, PCut= 1.00D-04
 Density has only Abelian symmetry.
 E= -75.0716778924903     Delta-E=       -0.000000000006 Rises=F Damp=F
 DIIS: error= 4.10D-07 at cycle   5 NSaved=   5.
 NSaved= 5 IEnMin= 5 EnMin= -75.0716778924903     IErMin= 5 ErrMin= 4.10D-07
 ErrMax= 4.10D-07  0.00D+00 EMaxC= 1.00D-01 BMatC= 2.48D-12 BMatP= 3.12D-11
 IDIUse=1 WtCom= 1.00D+00 WtEn= 0.00D+00
 Coeff-Com: -0.165D-03 0.190D-01-0.188D+00-0.205D-01 0.119D+01
 Coeff:     -0.165D-03 0.190D-01-0.188D+00-0.205D-01 0.119D+01
 Gap=     0.774 Goal=   None    Shift=    0.000
 Gap=     0.303 Goal=   None    Shift=    0.000
 RMSDP=1.46D-08 MaxDP=3.15D-07 DE=-6.37D-12 OVMax= 9.95D-07

 Cycle  11  Pass 1  IDiag  1:
 Density matrix breaks symmetry, PCut= 1.00D-04
 Density has only Abelian symmetry.
 E= -75.0716778924915     Delta-E=       -0.000000000001 Rises=F Damp=F
 DIIS: error= 1.66D-08 at cycle   6 NSaved=   6.
 NSaved= 6 IEnMin= 6 EnMin= -75.0716778924915     IErMin= 6 ErrMin= 1.66D-08
 ErrMax= 1.66D-08  0.00D+00 EMaxC= 1.00D-01 BMatC= 4.41D-15 BMatP= 2.48D-12
 IDIUse=1 WtCom= 1.00D+00 WtEn= 0.00D+00
 Coeff-Com: -0.750D-05-0.699D-03 0.103D-01-0.581D-02-0.969D-01 0.109D+01
 Coeff:     -0.750D-05-0.699D-03 0.103D-01-0.581D-02-0.969D-01 0.109D+01
 Gap=     0.774 Goal=   None    Shift=    0.000
 Gap=     0.303 Goal=   None    Shift=    0.000
 RMSDP=7.70D-10 MaxDP=1.79D-08 DE=-1.15D-12 OVMax= 5.05D-08

 Density matrix breaks symmetry, PCut= 1.00D-04
 Density has only Abelian symmetry.
 SCF Done:  E(UM062X) =  -75.0716778925     A.U. after   11 cycles
            NFock= 11  Conv=0.77D-09     -V/T= 2.0024
 <Sx>= 0.0000 <Sy>= 0.0000 <Sz>= 1.0000 <S**2>= 2.0049 S= 1.0016
 <L.S>= 0.000000000000E+00
 KE= 7.489527643265D+01 PE=-1.781016224187D+02 EE= 2.813466809355D+01
 Annihilation of the first spin contaminant:
 S**2 before annihilation     2.0049,   after     2.0000
 Leave Link  502 at Sun Apr 18 07:18:26 2021, MaxMem=   104857600 cpu:            6450.7 elap:             137.5
 (Enter /s/ls4/users/knvvv/bin/g16sse/l601.exe)
 Copying SCF densities to generalized density rwf, IOpCl= 1 IROHF=0.
 SCF density gives NOpUse=  8 NOpAll= 48.
 Marking SCF density as not fully symmetric.

 **********************************************************************

            Population analysis using the SCF density.

 **********************************************************************

 Orbital symmetries:
 Alpha Orbitals:
       Occupied  (A1G) (?A) (?B) (?B) (?B)
       Virtual   (?B) (?B) (?B) (?A) (T2G) (?A) (T2G) (T2G) (?A)
                 (?B) (?B) (?B) (?A) (?B) (?B) (?B) (A2U) (?B)
                 (?B) (?B) (?C) (?A) (?C) (?C) (?A) (T1U) (T1U)
                 (T1U) (?C) (T2G) (?C) (?C) (?C) (T2G) (?C) (?C)
                 (T2G) (?D) (?D) (?D) (A2U) (?D) (?D) (?D) (T2G)
                 (T2G) (T2G) (T2G) (T2G) (T2G) (A1G) (A1G)
 Beta  Orbitals:
       Occupied  (A1G) (?A) (?B)
       Virtual   (?B) (?B) (?B) (?B) (?B) (?A) (?C) (?A) (?A) (?C)
                 (?C) (?B) (?B) (?B) (?A) (?B) (?B) (?B) (A2U)
                 (?B) (?B) (?B) (?C) (?A) (?A) (?C) (?C) (?B) (?B)
                 (?B) (?D) (?D) (T2G) (?D) (?D) (?D) (T2G) (T2G)
                 (?D) (?E) (?E) (?E) (A2U) (?E) (?E) (?E) (T2G)
                 (T2G) (T2G) (T2G) (T2G) (T2G) (A1G) (A1G)
 Unable to determine electronic state:  an orbital has unidentified symmetry.
 Alpha  occ. eigenvalues --  -19.76598  -1.14748  -0.55000  -0.55000  -0.48371
 Alpha virt. eigenvalues --    0.29012   0.29012   0.29075   0.42872   1.01371
 Alpha virt. eigenvalues --    1.01371   1.03974   1.03974   1.04684   1.32354
 Alpha virt. eigenvalues --    1.32354   1.36502   2.74744   3.05363   3.05363
 Alpha virt. eigenvalues --    3.07681   3.07681   3.08901   3.08901   3.09433
 Alpha virt. eigenvalues --    3.67137   3.67137   3.71266   3.71266   3.72832
 Alpha virt. eigenvalues --    4.88430   4.88430   4.94129   8.64603   8.64603
 Alpha virt. eigenvalues --    8.67613   8.67613   8.70010   8.70010   8.71586
 Alpha virt. eigenvalues --    8.71586   8.72072  10.59755  10.59755  10.64918
 Alpha virt. eigenvalues --   10.64918  10.68113  10.68113  10.69352  11.59069
 Alpha virt. eigenvalues --   11.59069  11.65804  11.65804  11.67288  12.06024
 Alpha virt. eigenvalues --   46.65295 249.53642
  Beta  occ. eigenvalues --  -19.72864  -0.96235  -0.41207
  Beta virt. eigenvalues --   -0.10865  -0.10865   0.28160   0.28160   0.29450
  Beta virt. eigenvalues --    0.39578   1.02720   1.02720   1.04358   1.05210
  Beta virt. eigenvalues --    1.05210   1.37553   1.37553   1.38275   2.82627
  Beta virt. eigenvalues --    3.06061   3.06061   3.07640   3.07640   3.07742
  Beta virt. eigenvalues --    3.07742   3.08807   3.73355   3.73355   3.75415
  Beta virt. eigenvalues --    3.75564   3.75564   4.95994   4.99254   4.99254
  Beta virt. eigenvalues --    8.69540   8.69540   8.71173   8.71555   8.71555
  Beta virt. eigenvalues --    8.73169   8.73169   8.74308   8.74308  10.76260
  Beta virt. eigenvalues --   10.82808  10.82808  10.85330  10.85330  10.90342
  Beta virt. eigenvalues --   10.90342  11.82225  11.82225  11.83984  11.98304
  Beta virt. eigenvalues --   11.98305  12.25025  46.81464 249.51307
          Condensed to atoms (all electrons):
               1
     1  O    8.000000
          Atomic-Atomic Spin Densities.
               1
     1  O    2.000000
 Mulliken charges and spin densities:
               1          2
     1  O   -0.000000   2.000000
 Sum of Mulliken charges =  -0.00000   2.00000
 Mulliken charges and spin densities with hydrogens summed into heavy atoms:
               1          2
     1  O   -0.000000   2.000000
 Electronic spatial extent (au):  <R**2>=             11.4371
 Charge=             -0.0000 electrons
 Dipole moment (field-independent basis, Debye):
    X=              0.0000    Y=             -0.0000    Z=             -0.0000  Tot=              0.0000
 Quadrupole moment (field-independent basis, Debye-Ang):
   XX=             -5.9625   YY=             -4.7104   ZZ=             -4.7104
   XY=             -0.0000   XZ=              0.0000   YZ=             -0.0000
 Traceless Quadrupole moment (field-independent basis, Debye-Ang):
   XX=             -0.8347   YY=              0.4173   ZZ=              0.4173
   XY=             -0.0000   XZ=              0.0000   YZ=             -0.0000
 Octapole moment (field-independent basis, Debye-Ang**2):
  XXX=              0.0000  YYY=             -0.0000  ZZZ=              0.0000  XYY=             -0.0000
  XXY=             -0.0000  XXZ=             -0.0000  XZZ=              0.0000  YZZ=             -0.0000
  YYZ=             -0.0000  XYZ=             -0.0000
 Hexadecapole moment (field-independent basis, Debye-Ang**3):
 XXXX=             -5.1980 YYYY=             -3.2696 ZZZZ=             -3.2696 XXXY=             -0.0000
 XXXZ=              0.0000 YYYX=             -0.0000 YYYZ=              0.0000 ZZZX=              0.0000
 ZZZY=             -0.0000 XXYY=             -1.4126 XXZZ=             -1.4126 YYZZ=             -1.0899
 XXYZ=             -0.0000 YYXZ=              0.0000 ZZXY=             -0.0000
 N-N= 0.000000000000D+00 E-N=-1.781016224048D+02  KE= 7.489527643265D+01
                          Isotropic Fermi Contact Couplings
        Atom                 a.u.       MegaHertz       Gauss      10(-4) cm-1
     1  O(17)              0.20304     -61.54040     -21.95915     -20.52767
 PrsmSu:  requested number of processors reduced to:  21 ShMem   1 Linda.
 --------------------------------------------------------
       Center         ----  Spin Dipole Couplings  ----
                      3XX-RR        3YY-RR        3ZZ-RR
 --------------------------------------------------------
     1   Atom       -4.005998      2.002999      2.002999
 --------------------------------------------------------
                        XY            XZ            YZ
 --------------------------------------------------------
     1   Atom        0.000000      0.000000      0.000000
 --------------------------------------------------------


 ---------------------------------------------------------------------------------
              Anisotropic Spin Dipole Couplings in Principal Axis System
 ---------------------------------------------------------------------------------

       Atom             a.u.   MegaHertz   Gauss  10(-4) cm-1        Axes

              Baa    -4.0060   289.871   103.433    96.691  1.0000  0.0000  0.0000
     1 O(17)  Bbb     2.0030  -144.936   -51.717   -48.345 -0.0000  1.0000  0.0000
              Bcc     2.0030  -144.936   -51.717   -48.345  0.0000  0.0000  1.0000
 

 ---------------------------------------------------------------------------------

 PrsmSu:  requested number of processors reduced to:  21 ShMem   1 Linda.
 No NMR shielding tensors so no spin-rotation constants.
 Leave Link  601 at Sun Apr 18 07:18:35 2021, MaxMem=   104857600 cpu:             417.3 elap:               9.1
 (Enter /s/ls4/users/knvvv/bin/g16sse/l801.exe)
 DoSCS=F DFT=T ScalE2(SS,OS)=  1.000000  1.000000
 Range of M.O.s used for correlation:     1    57
 NBasis=    57 NAE=     5 NBE=     3 NFC=     0 NFV=     0
 NROrb=     57 NOA=     5 NOB=     3 NVA=    52 NVB=    54
 Leave Link  801 at Sun Apr 18 07:18:35 2021, MaxMem=   104857600 cpu:               4.6 elap:               0.1
 (Enter /s/ls4/users/knvvv/bin/g16sse/l914.exe)
 UHF ground state
 Doing stability rather than CIS.
 Keep R1 and R2 ints in memory in symmetry-blocked form, NReq=72103365.
 FoFCou: FMM=F IPFlag=           0 FMFlag=           0 FMFlg1=           0
         NFxFlg=           0 DoJE=F BraDBF=F KetDBF=F FulRan=T
         wScrn=  0.000000 ICntrl=       600 IOpCl=  0 I1Cent=           0 NGrid=           0
         NMat0=    1 NMatS0=   1653 NMatT0=    0 NMatD0=    1 NMtDS0=    0 NMtDT0=    0
 Petite list used in FoFCou.
 CoulSu:  requested number of processors reduced to:  22 ShMem   1 Linda.
 MDV=   104857600 DFT=T DoStab=T Mixed=T DoRPA=F DoScal=F NonHer=F
 Making orbital integer symmetry assigments:
 Orbital symmetries:
 Alpha Orbitals:
       Occupied  (A1G) (?A) (?B) (?B) (?B)
       Virtual   (?B) (?B) (?B) (?A) (T2G) (?A) (T2G) (T2G) (?A)
                 (?B) (?B) (?B) (?A) (?B) (?B) (?B) (A2U) (?B)
                 (?B) (?B) (?C) (?A) (?C) (?C) (?A) (T1U) (T1U)
                 (T1U) (?C) (T2G) (?C) (?C) (?C) (T2G) (?C) (?C)
                 (T2G) (?D) (?D) (?D) (A2U) (?D) (?D) (?D) (T2G)
                 (T2G) (T2G) (T2G) (T2G) (T2G) (A1G) (A1G)
 Beta  Orbitals:
       Occupied  (A1G) (?A) (?B)
       Virtual   (?B) (?B) (?B) (?B) (?B) (?A) (?C) (?A) (?A) (?C)
                 (?C) (?B) (?B) (?B) (?A) (?B) (?B) (?B) (A2U)
                 (?B) (?B) (?B) (?C) (?A) (?A) (?C) (?C) (?B) (?B)
                 (?B) (?D) (?D) (T2G) (?D) (?D) (?D) (T2G) (T2G)
                 (?D) (?E) (?E) (?E) (A2U) (?E) (?E) (?E) (T2G)
                 (T2G) (T2G) (T2G) (T2G) (T2G) (A1G) (A1G)
    24 initial guesses have been made.
 Convergence on wavefunction:    0.001000000000000
 Davidson Disk Diagonalization:  ConvIn= 1.00D-03 SkipCon=T Conv= 1.00D-03.
 Max sub-space:   844 roots to seek:    24 dimension of matrix:          422
 Iteration     1 Dimension    24 NMult     0 NNew     24
 CISAX will form    24 AO SS matrices at one time.
 NMat=    24 NSing=    24 JSym2X= 2.
 Excitation Energies [eV] at current iteration:
 Root      1 :     0.234193969801645
 Root      2 :     0.234193969801887
 Root      3 :    14.559207442751440
 Root      4 :    14.559207442752150
 Root      5 :    15.043946287387350
 Root      6 :    15.043946287387480
 Root      7 :    15.045974513751600
 Root      8 :    16.135691721720840
 Root      9 :    16.135691721721100
 Root     10 :    16.398964389904890
 Root     11 :    16.784871662836900
 Root     12 :    17.270903186894930
 Root     13 :    17.270903516406150
 Root     14 :    18.127996338886590
 Root     15 :    18.127996338887040
 Root     16 :    18.526692274431670
 Root     17 :    19.154193105874290
 Root     18 :    20.527510094871020
 Root     19 :    20.527510094871180
 Root     20 :    22.870520299852950
 Root     21 :    29.300069725982590
 Root     22 :    29.300069725983350
 Root     23 :    29.688613701690540
 Root     24 :    36.013139864658610
 Iteration     2 Dimension    48 NMult    24 NNew     24
 CISAX will form    24 AO SS matrices at one time.
 NMat=    24 NSing=    24 JSym2X= 2.
 Root      1 not converged, maximum delta is    0.526211957550100
 Excitation Energies [eV] at current iteration:
 Root      1 :     0.001006241005829   Change is   -0.233187728795816
 Root      2 :     0.001006241005931   Change is   -0.233187728795955
 Root      3 :    12.036390509475180   Change is   -3.007555777912168
 Root      4 :    12.036390509475230   Change is   -3.007555777912253
 Root      5 :    14.184254558519730   Change is   -0.861719955231869
 Root      6 :    14.438336355261910   Change is   -0.120871087489532
 Root      7 :    14.438336355262640   Change is   -0.120871087489514
 Root      8 :    15.840658953819530   Change is   -0.295032767901314
 Root      9 :    15.840658953819770   Change is   -0.295032767901338
 Root     10 :    16.060346259382370   Change is   -0.338618130522518
 Root     11 :    16.432485301024690   Change is   -0.352386361812200
 Root     12 :    16.922510363535760   Change is   -0.348392823359170
 Root     13 :    16.922510602560860   Change is   -0.348392913845292
 Root     14 :    18.021431166452580   Change is   -0.106565172434014
 Root     15 :    18.021431166453040   Change is   -0.106565172433996
 Root     16 :    18.483661654388870   Change is   -0.043030620042802
 Root     17 :    19.029009276519240   Change is   -0.125183829355053
 Root     18 :    20.186913718090620   Change is   -0.340596376780399
 Root     19 :    20.186913718090860   Change is   -0.340596376780321
 Root     20 :    21.496472076667920   Change is   -1.374048223185026
 Root     21 :    29.011108694563750   Change is   -0.288961031418845
 Root     22 :    29.011108694564580   Change is   -0.288961031418772
 Root     23 :    29.245330125063270   Change is   -0.443283576627267
 Root     24 :    31.927842014821330   Change is   -4.085297849837279
 Iteration     3 Dimension    51 NMult    48 NNew      3
 CISAX will form     3 AO SS matrices at one time.
 NMat=     3 NSing=     3 JSym2X= 2.
 DSYEVD-2 returned Info=         103 IAlg= 4 N=    51 NDim=    51 NE2=     2020801 trying  DSYEV.
 Root      1 not converged, maximum delta is    0.505657309396941
 Excitation Energies [eV] at current iteration:
 Root      1 :     0.000075058175484   Change is   -0.000931182830344
 Root      2 :     0.000075058175729   Change is   -0.000931182830202
 Root      3 :    12.001329330201950   Change is   -0.035061179273229
 Iteration     4 Dimension    54 NMult    51 NNew      3
 CISAX will form     3 AO SS matrices at one time.
 NMat=     3 NSing=     3 JSym2X= 2.
 Root      1 not converged, maximum delta is    0.066329475538280
 Excitation Energies [eV] at current iteration:
 Root      1 :     0.000073970106338   Change is   -0.000001088069146
 Root      2 :     0.000073970106562   Change is   -0.000001088069168
 Root      3 :    12.001243480468050   Change is   -0.000085849733902
 Iteration     5 Dimension    55 NMult    54 NNew      1
 CISAX will form     1 AO SS matrices at one time.
 NMat=     1 NSing=     1 JSym2X= 2.
 Root      1 not converged, maximum delta is    0.251220631316713
 Excitation Energies [eV] at current iteration:
 Root      1 :     0.000073970106356   Change is    0.000000000000018
 Root      2 :     0.000073970106507   Change is   -0.000000000000054
 Root      3 :    12.001242745514900   Change is   -0.000000734953154
 Iteration     6 Dimension    58 NMult    55 NNew      3
 CISAX will form     3 AO SS matrices at one time.
 NMat=     3 NSing=     3 JSym2X= 2.
 Root      1 not converged, maximum delta is    0.342230366855605
 Excitation Energies [eV] at current iteration:
 Root      1 :     0.000073969067845   Change is   -0.000000001038511
 Root      2 :     0.000073969067887   Change is   -0.000000001038620
 Root      3 :    12.001242739400090   Change is   -0.000000006114810
 Convergence achieved on expansion vectors.
 ***********************************************************************
 Stability analysis using <AA,BB:AA,BB> singles matrix:
 ***********************************************************************
 1PDM for each excited state written to RWF  633
 Ground to excited state transition densities written to RWF  633

 Eigenvectors of the stability matrix:
 
 Excited state symmetry could not be determined.
 Eigenvector   1:  3.005-?Sym  Eigenvalue= 0.0000027  <S**2>=2.007
      3B ->  4B        0.97999
      3B ->  7B       -0.18498
 
 Excited state symmetry could not be determined.
 Eigenvector   2:  3.005-?Sym  Eigenvalue= 0.0000027  <S**2>=2.007
      3B ->  5B        0.97999
      3B ->  6B       -0.18498
 
 Excited state symmetry could not be determined.
 Eigenvector   3:  3.010-?Sym  Eigenvalue= 0.4410376  <S**2>=2.015
      3A ->  9A        0.12625
      5A -> 12A       -0.10212
      2B ->  4B       -0.46126
      2B ->  5B        0.79470
      2B ->  6B       -0.24482
      2B ->  7B        0.10756
 The wavefunction is stable under the perturbations considered.
 Leave Link  914 at Sun Apr 18 07:18:52 2021, MaxMem=   104857600 cpu:             764.3 elap:              16.6
 (Enter /s/ls4/users/knvvv/bin/g16sse/l508.exe)
 The wavefunction is already stable.
 Leave Link  508 at Sun Apr 18 07:18:52 2021, MaxMem=   104857600 cpu:               2.2 elap:               0.1
 (Enter /s/ls4/users/knvvv/bin/g16sse/l601.exe)
 Copying SCF densities to generalized density rwf, IOpCl= 1 IROHF=0.
 SCF density gives NOpUse=  8 NOpAll= 48.
 Marking SCF density as not fully symmetric.

 **********************************************************************

            Population analysis using the SCF density.

 **********************************************************************

 Orbital symmetries:
 Alpha Orbitals:
       Occupied  (A1G) (?A) (?B) (?B) (?B)
       Virtual   (?B) (?B) (?B) (?A) (T2G) (?A) (T2G) (T2G) (?A)
                 (?B) (?B) (?B) (?A) (?B) (?B) (?B) (A2U) (?B)
                 (?B) (?B) (?C) (?A) (?C) (?C) (?A) (T1U) (T1U)
                 (T1U) (?C) (T2G) (?C) (?C) (?C) (T2G) (?C) (?C)
                 (T2G) (?D) (?D) (?D) (A2U) (?D) (?D) (?D) (T2G)
                 (T2G) (T2G) (T2G) (T2G) (T2G) (A1G) (A1G)
 Beta  Orbitals:
       Occupied  (A1G) (?A) (?B)
       Virtual   (?B) (?B) (?B) (?B) (?B) (?A) (?C) (?A) (?A) (?C)
                 (?C) (?B) (?B) (?B) (?A) (?B) (?B) (?B) (A2U)
                 (?B) (?B) (?B) (?C) (?A) (?A) (?C) (?C) (?B) (?B)
                 (?B) (?D) (?D) (T2G) (?D) (?D) (?D) (T2G) (T2G)
                 (?D) (?E) (?E) (?E) (A2U) (?E) (?E) (?E) (T2G)
                 (T2G) (T2G) (T2G) (T2G) (T2G) (A1G) (A1G)
 Unable to determine electronic state:  an orbital has unidentified symmetry.
 Alpha  occ. eigenvalues --  -19.76598  -1.14748  -0.55000  -0.55000  -0.48371
 Alpha virt. eigenvalues --    0.29012   0.29012   0.29075   0.42872   1.01371
 Alpha virt. eigenvalues --    1.01371   1.03974   1.03974   1.04684   1.32354
 Alpha virt. eigenvalues --    1.32354   1.36502   2.74744   3.05363   3.05363
 Alpha virt. eigenvalues --    3.07681   3.07681   3.08901   3.08901   3.09433
 Alpha virt. eigenvalues --    3.67137   3.67137   3.71266   3.71266   3.72832
 Alpha virt. eigenvalues --    4.88430   4.88430   4.94129   8.64603   8.64603
 Alpha virt. eigenvalues --    8.67613   8.67613   8.70010   8.70010   8.71586
 Alpha virt. eigenvalues --    8.71586   8.72072  10.59755  10.59755  10.64918
 Alpha virt. eigenvalues --   10.64918  10.68113  10.68113  10.69352  11.59069
 Alpha virt. eigenvalues --   11.59069  11.65804  11.65804  11.67288  12.06024
 Alpha virt. eigenvalues --   46.65295 249.53642
  Beta  occ. eigenvalues --  -19.72864  -0.96235  -0.41207
  Beta virt. eigenvalues --   -0.10865  -0.10865   0.28160   0.28160   0.29450
  Beta virt. eigenvalues --    0.39578   1.02720   1.02720   1.04358   1.05210
  Beta virt. eigenvalues --    1.05210   1.37553   1.37553   1.38275   2.82627
  Beta virt. eigenvalues --    3.06061   3.06061   3.07640   3.07640   3.07742
  Beta virt. eigenvalues --    3.07742   3.08807   3.73355   3.73355   3.75415
  Beta virt. eigenvalues --    3.75564   3.75564   4.95994   4.99254   4.99254
  Beta virt. eigenvalues --    8.69540   8.69540   8.71173   8.71555   8.71555
  Beta virt. eigenvalues --    8.73169   8.73169   8.74308   8.74308  10.76260
  Beta virt. eigenvalues --   10.82808  10.82808  10.85330  10.85330  10.90342
  Beta virt. eigenvalues --   10.90342  11.82225  11.82225  11.83984  11.98304
  Beta virt. eigenvalues --   11.98305  12.25025  46.81464 249.51307
          Condensed to atoms (all electrons):
               1
     1  O    8.000000
          Atomic-Atomic Spin Densities.
               1
     1  O    2.000000
 Mulliken charges and spin densities:
               1          2
     1  O   -0.000000   2.000000
 Sum of Mulliken charges =  -0.00000   2.00000
 Mulliken charges and spin densities with hydrogens summed into heavy atoms:
               1          2
     1  O   -0.000000   2.000000
 Electronic spatial extent (au):  <R**2>=             11.4371
 Charge=             -0.0000 electrons
 Dipole moment (field-independent basis, Debye):
    X=              0.0000    Y=             -0.0000    Z=             -0.0000  Tot=              0.0000
 Quadrupole moment (field-independent basis, Debye-Ang):
   XX=             -5.9625   YY=             -4.7104   ZZ=             -4.7104
   XY=             -0.0000   XZ=              0.0000   YZ=             -0.0000
 Traceless Quadrupole moment (field-independent basis, Debye-Ang):
   XX=             -0.8347   YY=              0.4173   ZZ=              0.4173
   XY=             -0.0000   XZ=              0.0000   YZ=             -0.0000
 Octapole moment (field-independent basis, Debye-Ang**2):
  XXX=              0.0000  YYY=             -0.0000  ZZZ=              0.0000  XYY=             -0.0000
  XXY=             -0.0000  XXZ=             -0.0000  XZZ=              0.0000  YZZ=             -0.0000
  YYZ=             -0.0000  XYZ=             -0.0000
 Hexadecapole moment (field-independent basis, Debye-Ang**3):
 XXXX=             -5.1980 YYYY=             -3.2696 ZZZZ=             -3.2696 XXXY=             -0.0000
 XXXZ=              0.0000 YYYX=             -0.0000 YYYZ=              0.0000 ZZZX=              0.0000
 ZZZY=             -0.0000 XXYY=             -1.4126 XXZZ=             -1.4126 YYZZ=             -1.0899
 XXYZ=             -0.0000 YYXZ=              0.0000 ZZXY=             -0.0000
 N-N= 0.000000000000D+00 E-N=-1.781016224048D+02  KE= 7.489527643265D+01
                          Isotropic Fermi Contact Couplings
        Atom                 a.u.       MegaHertz       Gauss      10(-4) cm-1
     1  O(17)              0.20304     -61.54040     -21.95915     -20.52767
 PrsmSu:  requested number of processors reduced to:  21 ShMem   1 Linda.
 --------------------------------------------------------
       Center         ----  Spin Dipole Couplings  ----
                      3XX-RR        3YY-RR        3ZZ-RR
 --------------------------------------------------------
     1   Atom       -4.005998      2.002999      2.002999
 --------------------------------------------------------
                        XY            XZ            YZ
 --------------------------------------------------------
     1   Atom        0.000000      0.000000      0.000000
 --------------------------------------------------------


 ---------------------------------------------------------------------------------
              Anisotropic Spin Dipole Couplings in Principal Axis System
 ---------------------------------------------------------------------------------

       Atom             a.u.   MegaHertz   Gauss  10(-4) cm-1        Axes

              Baa    -4.0060   289.871   103.433    96.691  1.0000  0.0000  0.0000
     1 O(17)  Bbb     2.0030  -144.936   -51.717   -48.345 -0.0000  1.0000  0.0000
              Bcc     2.0030  -144.936   -51.717   -48.345  0.0000  0.0000  1.0000
 

 ---------------------------------------------------------------------------------

 PrsmSu:  requested number of processors reduced to:  21 ShMem   1 Linda.
 No NMR shielding tensors so no spin-rotation constants.
 Leave Link  601 at Sun Apr 18 07:19:01 2021, MaxMem=   104857600 cpu:             400.3 elap:               8.7
 (Enter /s/ls4/users/knvvv/bin/g16sse/l9999.exe)

 Test job not archived.
 1\1\GINC-N178\Stability\UM062X\def2QZVP\O1(3)\KNVVV\18-Apr-2021\0\\#P 
 M062X/Def2QZVP Integral=UltraFineGrid SCF=NoSymm Stable=(RExt, Opt) IO
 p(1/33=1)\\Database calculations.\\0,3\O,0,0.,0.,0.\\Version=ES64L-G16
 RevA.03\HF=-75.0716779\S2=2.004906\S2-1=0.\S2A=2.000008\RMSD=7.696e-10
 \Dipole=0.,0.,0.\Quadrupole=0.3102852,0.3102852,-0.6205704,0.,0.,0.\PG
 =OH [O(O1)]\\@


 REPARTEE - WHAT YOU THINK OF AFTER YOU BECOME A DEPARTEE.
 Job cpu time:       0 days  2 hours 35 minutes 38.1 seconds.
 Elapsed time:       0 days  0 hours  3 minutes 20.0 seconds.
 File lengths (MBytes):  RWF=     13 Int=      0 D2E=      0 Chk=      2 Scr=      1
 Normal termination of Gaussian 16 at Sun Apr 18 07:19:01 2021.
