 Entering Gaussian System, Link 0=/s/ls4/users/knvvv/bin/g16sse/g16
 Input=data/database/M062X--def2-QZVPPD--13_c2h6_BSR36.gjf
 Output=data/database/M062X--def2-QZVPPD--13_c2h6_BSR36.log
 Initial command:
 /s/ls4/users/knvvv/bin/g16sse/l1.exe "/s/ls4/users/knvvv/bin/scratch/Gau-17372.inp" -scrdir="/s/ls4/users/knvvv/bin/scratch/"
 Entering Link 1 = /s/ls4/users/knvvv/bin/g16sse/l1.exe PID=     17373.
  
 Copyright (c) 1988,1990,1992,1993,1995,1998,2003,2009,2016,
            Gaussian, Inc.  All Rights Reserved.
  
 This is part of the Gaussian(R) 16 program.  It is based on
 the Gaussian(R) 09 system (copyright 2009, Gaussian, Inc.),
 the Gaussian(R) 03 system (copyright 2003, Gaussian, Inc.),
 the Gaussian(R) 98 system (copyright 1998, Gaussian, Inc.),
 the Gaussian(R) 94 system (copyright 1995, Gaussian, Inc.),
 the Gaussian 92(TM) system (copyright 1992, Gaussian, Inc.),
 the Gaussian 90(TM) system (copyright 1990, Gaussian, Inc.),
 the Gaussian 88(TM) system (copyright 1988, Gaussian, Inc.),
 the Gaussian 86(TM) system (copyright 1986, Carnegie Mellon
 University), and the Gaussian 82(TM) system (copyright 1983,
 Carnegie Mellon University). Gaussian is a federally registered
 trademark of Gaussian, Inc.
  
 This software contains proprietary and confidential information,
 including trade secrets, belonging to Gaussian, Inc.
  
 This software is provided under written license and may be
 used, copied, transmitted, or stored only in accord with that
 written license.
  
 The following legend is applicable only to US Government
 contracts under FAR:
  
                    RESTRICTED RIGHTS LEGEND
  
 Use, reproduction and disclosure by the US Government is
 subject to restrictions as set forth in subparagraphs (a)
 and (c) of the Commercial Computer Software - Restricted
 Rights clause in FAR 52.227-19.
  
 Gaussian, Inc.
 340 Quinnipiac St., Bldg. 40, Wallingford CT 06492
  
  
 ---------------------------------------------------------------
 Warning -- This program may not be used in any manner that
 competes with the business of Gaussian, Inc. or will provide
 assistance to any competitor of Gaussian, Inc.  The licensee
 of this program is prohibited from giving any competitor of
 Gaussian, Inc. access to this program.  By using this program,
 the user acknowledges that Gaussian, Inc. is engaged in the
 business of creating and licensing software in the field of
 computational chemistry and represents and warrants to the
 licensee that it is not a competitor of Gaussian, Inc. and that
 it will not use this program in any manner prohibited above.
 ---------------------------------------------------------------
  

 Cite this work as:
 Gaussian 16, Revision A.03,
 M. J. Frisch, G. W. Trucks, H. B. Schlegel, G. E. Scuseria, 
 M. A. Robb, J. R. Cheeseman, G. Scalmani, V. Barone, 
 G. A. Petersson, H. Nakatsuji, X. Li, M. Caricato, A. V. Marenich, 
 J. Bloino, B. G. Janesko, R. Gomperts, B. Mennucci, H. P. Hratchian, 
 J. V. Ortiz, A. F. Izmaylov, J. L. Sonnenberg, D. Williams-Young, 
 F. Ding, F. Lipparini, F. Egidi, J. Goings, B. Peng, A. Petrone, 
 T. Henderson, D. Ranasinghe, V. G. Zakrzewski, J. Gao, N. Rega, 
 G. Zheng, W. Liang, M. Hada, M. Ehara, K. Toyota, R. Fukuda, 
 J. Hasegawa, M. Ishida, T. Nakajima, Y. Honda, O. Kitao, H. Nakai, 
 T. Vreven, K. Throssell, J. A. Montgomery, Jr., J. E. Peralta, 
 F. Ogliaro, M. J. Bearpark, J. J. Heyd, E. N. Brothers, K. N. Kudin, 
 V. N. Staroverov, T. A. Keith, R. Kobayashi, J. Normand, 
 K. Raghavachari, A. P. Rendell, J. C. Burant, S. S. Iyengar, 
 J. Tomasi, M. Cossi, J. M. Millam, M. Klene, C. Adamo, R. Cammi, 
 J. W. Ochterski, R. L. Martin, K. Morokuma, O. Farkas, 
 J. B. Foresman, and D. J. Fox, Gaussian, Inc., Wallingford CT, 2016.
 
 ******************************************
 Gaussian 16:  ES64L-G16RevA.03 25-Dec-2016
                17-Apr-2021 
 ******************************************
 %RWF=temp6_86479,70GB
 %nprocshared=48
 Will use up to   48 processors via shared memory.
 Default route: MaxDisk=80GB
 ----------------------------------------------------------------------
 #P M062X/GEN Integral=UltraFineGrid SCF=NoSymm Stable=(RExt, Opt) IOp(
 1/33=1)
 ----------------------------------------------------------------------
 1/33=1,38=1,172=1/1;
 2/12=2,17=6,18=5,40=1/2;
 3/5=7,11=2,25=1,30=1,74=-55,75=-5/1,2,3;
 4/9=2/1;
 5/5=2,38=5/2;
 6/7=2,8=2,9=2,10=2,28=1/1;
 8/6=1,10=90,11=11/1;
 9/8=-3,42=1,46=1/14;
 5/5=2,8=3,17=40,38=5/8(-2);
 6/7=2,8=2,9=2,10=2,28=1/1;
 99/5=1,9=1/99;
 Leave Link    1 at Sat Apr 17 07:13:08 2021, MaxMem=           0 cpu:              10.8 elap:               0.2
 (Enter /s/ls4/users/knvvv/bin/g16sse/l101.exe)
 ONIOM data not found on unit 2.
 ----------------------
 Database calculations.
 ----------------------
 TstMul:  ICh=     0
 TstMul:  Mul=     1
 TstMul:  ICh=     0
 TstMul:  Mul=     1
 Symbolic Z-matrix:
 Charge =  0 Multiplicity = 1
 C                     0.        0.       -0.76169 
 C                     0.        0.        0.76169 
 H                    -0.8786    0.50726  -1.15576 
 H                     0.       -1.01452  -1.15576 
 H                     0.8786    0.50726  -1.15576 
 H                    -0.8786   -0.50726   1.15576 
 H                     0.        1.01452   1.15576 
 H                     0.8786   -0.50726   1.15576 
 
 RdStrC is calling ZToCFu for IStruc=1 NZ=     8.
 PrtBox:  NBox=     1 Levels=  1 BoxLen=    8.00 SMaxX=        4.37
          Shift=            1.660314            1.917165            2.184079
 Box      1 Number                   0 centers from      1 to      8:
 After GenITR:
 ITRead=  0  0  0  0  0  0  0  0
 MicOpt= -1 -1 -1 -1 -1 -1 -1 -1
 ITRead=  0  0  0  0  0  0  0  0
 MicOpt= -1 -1 -1 -1 -1 -1 -1 -1
 NAtoms=      8 NQM=        8 NQMF=       0 NMMI=      0 NMMIF=      0
                NMic=       0 NMicF=      0.
                    Isotopes and Nuclear Properties:
 (Nuclear quadrupole moments (NQMom) in fm**2, nuclear magnetic moments (NMagM)
  in nuclear magnetons)

  Atom         1           2           3           4           5           6           7           8
 IAtWgt=          12          12           1           1           1           1           1           1
 AtmWgt=  12.0000000  12.0000000   1.0078250   1.0078250   1.0078250   1.0078250   1.0078250   1.0078250
 NucSpn=           0           0           1           1           1           1           1           1
 AtZEff=  -0.0000000  -0.0000000  -0.0000000  -0.0000000  -0.0000000  -0.0000000  -0.0000000  -0.0000000
 NQMom=    0.0000000   0.0000000   0.0000000   0.0000000   0.0000000   0.0000000   0.0000000   0.0000000
 NMagM=    0.0000000   0.0000000   2.7928460   2.7928460   2.7928460   2.7928460   2.7928460   2.7928460
 AtZNuc=   6.0000000   6.0000000   1.0000000   1.0000000   1.0000000   1.0000000   1.0000000   1.0000000
 No MM parameters found.
 Leave Link  101 at Sat Apr 17 07:13:08 2021, MaxMem=   104857600 cpu:               7.8 elap:               0.2
 (Enter /s/ls4/users/knvvv/bin/g16sse/l202.exe)
                          Input orientation:                          
 ---------------------------------------------------------------------
 Center     Atomic      Atomic             Coordinates (Angstroms)
 Number     Number       Type             X           Y           Z
 ---------------------------------------------------------------------
      1          6           0        0.000000    0.000000   -0.761689
      2          6           0        0.000000    0.000000    0.761689
      3          1           0       -0.878600    0.507260   -1.155765
      4          1           0        0.000000   -1.014520   -1.155765
      5          1           0        0.878600    0.507260   -1.155765
      6          1           0       -0.878600   -0.507260    1.155765
      7          1           0        0.000000    1.014520    1.155765
      8          1           0        0.878600   -0.507260    1.155765
 ---------------------------------------------------------------------
                    Distance matrix (angstroms):
                    1          2          3          4          5
     1  C    0.000000
     2  C    1.523379   0.000000
     3  H    1.088369   2.169305   0.000000
     4  H    1.088369   2.169305   1.757201   0.000000
     5  H    1.088369   2.169305   1.757201   1.757201   0.000000
     6  H    2.169305   1.088369   2.524366   2.524366   3.075740
     7  H    2.169305   1.088369   2.524366   3.075740   2.524366
     8  H    2.169305   1.088369   3.075740   2.524366   2.524366
                    6          7          8
     6  H    0.000000
     7  H    1.757201   0.000000
     8  H    1.757201   1.757201   0.000000
 Stoichiometry    C2H6
 Framework group  D3D[C3(C.C),3SGD(H2)]
 Deg. of freedom     3
 Full point group                 D3D     NOp  12
 Largest Abelian subgroup         C2H     NOp   4
 Largest concise Abelian subgroup C2H     NOp   4
                         Standard orientation:                         
 ---------------------------------------------------------------------
 Center     Atomic      Atomic             Coordinates (Angstroms)
 Number     Number       Type             X           Y           Z
 ---------------------------------------------------------------------
      1          6           0        0.000000    0.000000    0.761689
      2          6           0       -0.000000   -0.000000   -0.761689
      3          1           0       -0.000000    1.014520    1.155765
      4          1           0        0.878600   -0.507260    1.155765
      5          1           0       -0.878600   -0.507260    1.155765
      6          1           0        0.878600    0.507260   -1.155765
      7          1           0       -0.878600    0.507260   -1.155765
      8          1           0       -0.000000   -1.014520   -1.155765
 ---------------------------------------------------------------------
 Rotational constants (GHZ):          81.2006332          20.1238108          20.1238108
 Leave Link  202 at Sat Apr 17 07:13:08 2021, MaxMem=   104857600 cpu:              16.0 elap:               0.4
 (Enter /s/ls4/users/knvvv/bin/g16sse/l301.exe)
 General basis read from cards:  (5D, 7F)
 Centers:       3      4      5      6      7      8
 S 4 1.00
     Exponent=  1.9069169000D+02 Coefficients=  7.0815167000D-04
     Exponent=  2.8605532000D+01 Coefficients=  5.4678827000D-03
     Exponent=  6.5095943000D+00 Coefficients=  2.7966605000D-02
     Exponent=  1.8412455000D+00 Coefficients=  1.0764538000D-01
 S 1 1.00
     Exponent=  5.9853725000D-01 Coefficients=  1.0000000000D+00
 S 1 1.00
     Exponent=  2.1397624000D-01 Coefficients=  1.0000000000D+00
 S 1 1.00
     Exponent=  8.0316286000D-02 Coefficients=  1.0000000000D+00
 P 1 1.00
     Exponent=  2.2920000000D+00 Coefficients=  1.0000000000D+00
 P 1 1.00
     Exponent=  8.3800000000D-01 Coefficients=  1.0000000000D+00
 P 1 1.00
     Exponent=  2.9200000000D-01 Coefficients=  1.0000000000D+00
 P 1 1.00
     Exponent=  8.4063199228D-02 Coefficients=  1.0000000000D+00
 D 1 1.00
     Exponent=  2.0620000000D+00 Coefficients=  1.0000000000D+00
 D 1 1.00
     Exponent=  6.6200000000D-01 Coefficients=  1.0000000000D+00
 F 1 1.00
     Exponent=  1.3970000000D+00 Coefficients=  1.0000000000D+00
 ****
 Centers:       1      2
 S 8 1.00
     Exponent=  6.7025071029D+04 Coefficients=  3.8736308501D-05
     Exponent=  1.0039986538D+04 Coefficients=  3.0107917575D-04
     Exponent=  2.2849316911D+03 Coefficients=  1.5787918095D-03
     Exponent=  6.4714122130D+02 Coefficients=  6.6087087195D-03
     Exponent=  2.1109472335D+02 Coefficients=  2.3367123250D-02
     Exponent=  7.6177643862D+01 Coefficients=  7.0420716898D-02
     Exponent=  2.9633839163D+01 Coefficients=  1.7360344953D-01
     Exponent=  1.2187785081D+01 Coefficients=  3.2292305648D-01
 S 2 1.00
     Exponent=  5.3026006299D+01 Coefficients=  7.4897404492D-02
     Exponent=  1.5258502776D+01 Coefficients=  7.6136220983D-01
 S 1 1.00
     Exponent=  5.2403957464D+00 Coefficients=  1.0000000000D+00
 S 1 1.00
     Exponent=  2.2905022379D+00 Coefficients=  1.0000000000D+00
 S 1 1.00
     Exponent=  6.9673283006D-01 Coefficients=  1.0000000000D+00
 S 1 1.00
     Exponent=  2.7599337363D-01 Coefficients=  1.0000000000D+00
 S 1 1.00
     Exponent=  1.0739884389D-01 Coefficients=  1.0000000000D+00
 S 1 1.00
     Exponent=  4.4981404899D-02 Coefficients=  1.0000000000D+00
 P 5 1.00
     Exponent=  1.0512555082D+02 Coefficients=  8.4647553844D-04
     Exponent=  2.4884461066D+01 Coefficients=  6.6274038534D-03
     Exponent=  7.8637230826D+00 Coefficients=  3.0120390419D-02
     Exponent=  2.8407001835D+00 Coefficients=  9.9951435476D-02
     Exponent=  1.1227137335D+00 Coefficients=  2.3826299282D-01
 P 1 1.00
     Exponent=  4.6050725555D-01 Coefficients=  1.0000000000D+00
 P 1 1.00
     Exponent=  1.8937530913D-01 Coefficients=  1.0000000000D+00
 P 1 1.00
     Exponent=  7.5983791611D-02 Coefficients=  1.0000000000D+00
 D 1 1.00
     Exponent=  1.8480000000D+00 Coefficients=  1.0000000000D+00
 D 1 1.00
     Exponent=  6.4900000000D-01 Coefficients=  1.0000000000D+00
 D 1 1.00
     Exponent=  2.2800000000D-01 Coefficients=  1.0000000000D+00
 D 1 1.00
     Exponent=  7.6889830417D-02 Coefficients=  1.0000000000D+00
 F 1 1.00
     Exponent=  1.4190000000D+00 Coefficients=  1.0000000000D+00
 F 1 1.00
     Exponent=  4.8500000000D-01 Coefficients=  1.0000000000D+00
 G 1 1.00
     Exponent=  1.0110000000D+00 Coefficients=  1.0000000000D+00
 ****
 Ernie: Thresh=  0.10000D-02 Tol=  0.10000D-05 Strict=F.
 There are   117 symmetry adapted cartesian basis functions of AG  symmetry.
 There are    76 symmetry adapted cartesian basis functions of BG  symmetry.
 There are    76 symmetry adapted cartesian basis functions of AU  symmetry.
 There are   117 symmetry adapted cartesian basis functions of BU  symmetry.
 There are    96 symmetry adapted basis functions of AG  symmetry.
 There are    66 symmetry adapted basis functions of BG  symmetry.
 There are    66 symmetry adapted basis functions of AU  symmetry.
 There are    96 symmetry adapted basis functions of BU  symmetry.
   324 basis functions,   444 primitive gaussians,   386 cartesian basis functions
     9 alpha electrons        9 beta electrons
       nuclear repulsion energy        42.3715437962 Hartrees.
 IExCor= 4336 DFT=T Ex+Corr=M062X ExCW=0 ScaHFX=  0.540000
 ScaDFX=  1.000000  1.000000  1.000000  1.000000 ScalE2=  1.000000  1.000000
 IRadAn=      5 IRanWt=     -1 IRanGd=            0 ICorTp=0 IEmpDi=  4
 NAtoms=    8 NActive=    8 NUniq=    2 SFac= 4.00D+00 NAtFMM=   60 NAOKFM=F Big=F
 Integral buffers will be    131072 words long.
 Raffenetti 2 integral format.
 Two-electron integral symmetry is turned on.
 Leave Link  301 at Sat Apr 17 07:13:09 2021, MaxMem=   104857600 cpu:               9.5 elap:               0.2
 (Enter /s/ls4/users/knvvv/bin/g16sse/l302.exe)
 NPDir=0 NMtPBC=     1 NCelOv=     1 NCel=       1 NClECP=     1 NCelD=      1
         NCelK=      1 NCelE2=     1 NClLst=     1 CellRange=     0.0.
 One-electron integrals computed using PRISM.
 One-electron integral symmetry used in STVInt
 PrsmSu:  requested number of processors reduced to:   4 ShMem   1 Linda.
 PrsmSu:  requested number of processors reduced to:  21 ShMem   1 Linda.
 NBasis=   324 RedAO= T EigKep=  1.12D-06  NBF=    96    66    66    96
 NBsUse=   322 1.00D-06 EigRej=  5.52D-07 NBFU=    95    65    66    96
 Precomputing XC quadrature grid using
 IXCGrd= 4 IRadAn=           5 IRanWt=          -1 IRanGd=           0 AccXCQ= 0.00D+00.
 Generated NRdTot=       0 NPtTot=           0 NUsed=           0 NTot=          32
 NSgBfM=   386   386   386   386   386 MxSgAt=     8 MxSgA2=     8.
 Leave Link  302 at Sat Apr 17 07:13:38 2021, MaxMem=   104857600 cpu:            1372.3 elap:              29.3
 (Enter /s/ls4/users/knvvv/bin/g16sse/l303.exe)
 DipDrv:  MaxL=1.
 Leave Link  303 at Sat Apr 17 07:13:39 2021, MaxMem=   104857600 cpu:              46.7 elap:               1.0
 (Enter /s/ls4/users/knvvv/bin/g16sse/l401.exe)
 SCF N**3 symmetry information disabled.
 ExpMin= 4.50D-02 ExpMax= 6.70D+04 ExpMxC= 6.47D+02 IAcc=3 IRadAn=         5 AccDes= 0.00D+00
 Harris functional with IExCor= 1009 and IRadAn=       5 diagonalized for initial guess.
 HarFok:  IExCor= 1009 AccDes= 0.00D+00 IRadAn=         5 IDoV= 1 UseB2=F ITyADJ=14
 ICtDFT=  3500011 ScaDFX=  1.000000  1.000000  1.000000  1.000000
 FoFCou: FMM=F IPFlag=           0 FMFlag=      100000 FMFlg1=           0
         NFxFlg=           0 DoJE=T BraDBF=F KetDBF=T FulRan=T
         wScrn=  0.000000 ICntrl=       500 IOpCl=  0 I1Cent=   200000004 NGrid=           0
         NMat0=    1 NMatS0=      1 NMatT0=    0 NMatD0=    1 NMtDS0=    0 NMtDT0=    0
 Petite list used in FoFCou.
 CoulSu:  requested number of processors reduced to:  20 ShMem   1 Linda.
 CoulSu:  requested number of processors reduced to:  20 ShMem   1 Linda.
 CoulSu:  requested number of processors reduced to:  21 ShMem   1 Linda.
 CoulSu:  requested number of processors reduced to:  21 ShMem   1 Linda.
 Harris En= -79.8505278188604    
 JPrj=0 DoOrth=F DoCkMO=F.
 Initial guess orbital symmetries:
       Occupied  (A1G) (A2U) (A1G) (A2U) (EU) (EU) (A1G) (EG) (EG)
       Virtual   (A1G) (A2U) (EU) (EU) (EG) (EG) (A1G) (A2U) (EG)
                 (EG) (EU) (EU) (A2U) (A1G) (EU) (EU) (A2U) (EU)
                 (EU) (A1U) (A2U) (EG) (EG) (A1G) (EG) (EG) (A1G)
                 (A2G) (EG) (EG) (EU) (EU) (A1G) (EG) (EG) (A2U)
                 (A2U) (EU) (EU) (EU) (EU) (A1G) (EG) (EG) (EU)
                 (EU) (A2U) (EU) (EU) (EG) (EG) (A2U) (A1G) (A1U)
                 (EG) (EG) (A1G) (EU) (EU) (EG) (EG) (A2U) (EU)
                 (EU) (A2G) (A1G) (A2U) (A2U) (EG) (EG) (EU) (EU)
                 (A1G) (EU) (EU) (EG) (EG) (A1G) (A2U) (EG) (EG)
                 (A1G) (EU) (EU) (EG) (EG) (EU) (EU) (A2U) (A1U)
                 (A1G) (EU) (EU) (EG) (EG) (EG) (EG) (A2G) (EU)
                 (EU) (A2U) (EU) (EU) (EG) (EG) (A2U) (A1G) (A1U)
                 (EU) (EU) (A2U) (EG) (EG) (A2G) (A1G) (EU) (EU)
                 (A2U) (EG) (EG) (EG) (EG) (EU) (EU) (A2U) (A1G)
                 (EG) (EG) (A1G) (EU) (EU) (A1U) (EG) (EG) (A2G)
                 (A1G) (EU) (EU) (A2U) (A1U) (EG) (EG) (A1G) (EU)
                 (EU) (EG) (EG) (A1G) (EU) (EU) (A2U) (A1G) (A2U)
                 (EG) (EG) (EU) (EU) (A1G) (A2G) (EG) (EG) (EU)
                 (EU) (A2U) (EG) (EG) (EU) (EU) (A2U) (EG) (EG)
                 (EU) (EU) (A1U) (EG) (EG) (A2G) (A1G) (EU) (EU)
                 (A2U) (EU) (EU) (EU) (EU) (EG) (EG) (EG) (EG)
                 (A2U) (A2G) (A1U) (A1G) (A1U) (EG) (EG) (A2U)
                 (EU) (EU) (A1G) (A2G) (EG) (EG) (A2U) (EU) (EU)
                 (EG) (EG) (A1G) (EU) (EU) (A1G) (EU) (EU) (EG)
                 (EG) (A1U) (EU) (EU) (A1G) (A2U) (A2U) (EG) (EG)
                 (A1G) (A2G) (EU) (EU) (EG) (EG) (A1G) (EU) (EU)
                 (A1U) (A2U) (EG) (EG) (EG) (EG) (A1G) (A2U) (EG)
                 (EG) (EU) (EU) (EU) (EU) (A2G) (EG) (EG) (A2U)
                 (A1G) (EU) (EU) (EU) (EU) (EG) (EG) (A1U) (A2U)
                 (EU) (EU) (A2G) (A1G) (EG) (EG) (A2U) (EG) (EG)
                 (EU) (EU) (A1G) (A2U) (EG) (EG) (A1U) (EG) (EG)
                 (EU) (EU) (A1G) (EU) (EU) (A2G) (A2U) (EG) (EG)
                 (A2U) (EU) (EU) (A1G) (EG) (EG) (EU) (EU) (A2U)
                 (A1G) (EG) (EG) (A1U) (EU) (EU) (A2G) (EG) (EG)
                 (EU) (EU) (A2U) (A1G) (A1G) (A2U) (A1G) (A2U)
 The electronic state of the initial guess is 1-A1G.
 Leave Link  401 at Sat Apr 17 07:13:40 2021, MaxMem=   104857600 cpu:              52.3 elap:               1.3
 (Enter /s/ls4/users/knvvv/bin/g16sse/l502.exe)
 Integral symmetry usage will be decided dynamically.
 Closed shell SCF:
 Using DIIS extrapolation, IDIIS=  1040.
 NGot=   104857600 LenX=   104534642 LenY=   104385205
 Requested convergence on RMS density matrix=1.00D-08 within 128 cycles.
 Requested convergence on MAX density matrix=1.00D-06.
 Requested convergence on             energy=1.00D-06.
 No special actions if energy rises.
 Fock matrices will be formed incrementally for  20 cycles.

 Cycle   1  Pass 1  IDiag  1:
 FoFJK:  IHMeth= 1 ICntrl=       0 DoSepK=F KAlg= 0 I1Cent=           0 FoldK=F
 IRaf= 990000000 NMat=       1 IRICut=       1 DoRegI=T DoRafI=F ISym2E= 1 IDoP0=0 IntGTp=1.
 FoFCou: FMM=F IPFlag=           0 FMFlag=      100000 FMFlg1=           0
         NFxFlg=           0 DoJE=F BraDBF=F KetDBF=F FulRan=T
         wScrn=  0.000000 ICntrl=         0 IOpCl=  0 I1Cent=           0 NGrid=           0
         NMat0=    1 NMatS0=      1 NMatT0=    0 NMatD0=    1 NMtDS0=    0 NMtDT0=    0
 Petite list used in FoFCou.
 CoulSu:  requested number of processors reduced to:  21 ShMem   1 Linda.
 E= -79.6742228650813    
 DIIS: error= 3.77D-02 at cycle   1 NSaved=   1.
 NSaved= 1 IEnMin= 1 EnMin= -79.6742228650813     IErMin= 1 ErrMin= 3.77D-02
 ErrMax= 3.77D-02  0.00D+00 EMaxC= 1.00D-01 BMatC= 1.76D-01 BMatP= 1.76D-01
 IDIUse=3 WtCom= 6.23D-01 WtEn= 3.77D-01
 Coeff-Com:  0.100D+01
 Coeff-En:   0.100D+01
 Coeff:      0.100D+01
 Gap=     0.346 Goal=   None    Shift=    0.000
 GapD=    0.346 DampG=1.000 DampE=0.500 DampFc=0.5000 IDamp=-1.
 Damping current iteration by 5.00D-01
 RMSDP=1.67D-03 MaxDP=5.79D-02              OVMax= 1.66D-01

 Cycle   2  Pass 1  IDiag  1:
 RMSU=  8.27D-04    CP:  9.64D-01
 CoulSu:  requested number of processors reduced to:  21 ShMem   1 Linda.
 E= -79.7462744897874     Delta-E=       -0.072051624706 Rises=F Damp=T
 DIIS: error= 1.30D-02 at cycle   2 NSaved=   2.
 NSaved= 2 IEnMin= 2 EnMin= -79.7462744897874     IErMin= 2 ErrMin= 1.30D-02
 ErrMax= 1.30D-02  0.00D+00 EMaxC= 1.00D-01 BMatC= 1.41D-02 BMatP= 1.76D-01
 IDIUse=3 WtCom= 8.70D-01 WtEn= 1.30D-01
 Coeff-Com: -0.124D+00 0.112D+01
 Coeff-En:   0.000D+00 0.100D+01
 Coeff:     -0.108D+00 0.111D+01
 Gap=     0.450 Goal=   None    Shift=    0.000
 RMSDP=1.91D-03 MaxDP=8.40D-02 DE=-7.21D-02 OVMax= 9.16D-02

 Cycle   3  Pass 1  IDiag  1:
 RMSU=  1.21D-03    CP:  1.01D+00  2.78D+00
 CoulSu:  requested number of processors reduced to:  21 ShMem   1 Linda.
 E= -79.8139999888471     Delta-E=       -0.067725499060 Rises=F Damp=F
 DIIS: error= 3.14D-03 at cycle   3 NSaved=   3.
 NSaved= 3 IEnMin= 3 EnMin= -79.8139999888471     IErMin= 3 ErrMin= 3.14D-03
 ErrMax= 3.14D-03  0.00D+00 EMaxC= 1.00D-01 BMatC= 7.62D-04 BMatP= 1.41D-02
 IDIUse=3 WtCom= 9.69D-01 WtEn= 3.14D-02
 Coeff-Com: -0.614D-01 0.169D+00 0.892D+00
 Coeff-En:   0.000D+00 0.000D+00 0.100D+01
 Coeff:     -0.595D-01 0.164D+00 0.895D+00
 Gap=     0.416 Goal=   None    Shift=    0.000
 RMSDP=1.61D-04 MaxDP=7.89D-03 DE=-6.77D-02 OVMax= 8.17D-03

 Cycle   4  Pass 1  IDiag  1:
 RMSU=  1.21D-04    CP:  9.97D-01  2.71D+00  9.32D-01
 CoulSu:  requested number of processors reduced to:  21 ShMem   1 Linda.
 E= -79.8146967309914     Delta-E=       -0.000696742144 Rises=F Damp=F
 DIIS: error= 7.50D-04 at cycle   4 NSaved=   4.
 NSaved= 4 IEnMin= 4 EnMin= -79.8146967309914     IErMin= 4 ErrMin= 7.50D-04
 ErrMax= 7.50D-04  0.00D+00 EMaxC= 1.00D-01 BMatC= 2.18D-05 BMatP= 7.62D-04
 IDIUse=3 WtCom= 9.93D-01 WtEn= 7.50D-03
 Coeff-Com: -0.365D-02 0.885D-02 0.158D+00 0.837D+00
 Coeff-En:   0.000D+00 0.000D+00 0.000D+00 0.100D+01
 Coeff:     -0.363D-02 0.878D-02 0.157D+00 0.838D+00
 Gap=     0.416 Goal=   None    Shift=    0.000
 RMSDP=6.32D-05 MaxDP=2.21D-03 DE=-6.97D-04 OVMax= 1.76D-03

 Cycle   5  Pass 1  IDiag  1:
 RMSU=  4.01D-05    CP:  9.95D-01  2.69D+00  9.34D-01  1.35D+00
 CoulSu:  requested number of processors reduced to:  21 ShMem   1 Linda.
 E= -79.8147156681438     Delta-E=       -0.000018937152 Rises=F Damp=F
 DIIS: error= 5.76D-05 at cycle   5 NSaved=   5.
 NSaved= 5 IEnMin= 5 EnMin= -79.8147156681438     IErMin= 5 ErrMin= 5.76D-05
 ErrMax= 5.76D-05  0.00D+00 EMaxC= 1.00D-01 BMatC= 3.79D-07 BMatP= 2.18D-05
 IDIUse=1 WtCom= 1.00D+00 WtEn= 0.00D+00
 Coeff-Com:  0.279D-02-0.624D-02-0.274D-01 0.562D-02 0.103D+01
 Coeff:      0.279D-02-0.624D-02-0.274D-01 0.562D-02 0.103D+01
 Gap=     0.416 Goal=   None    Shift=    0.000
 RMSDP=1.60D-05 MaxDP=4.56D-04 DE=-1.89D-05 OVMax= 2.94D-04

 Cycle   6  Pass 1  IDiag  1:
 RMSU=  3.91D-06    CP:  9.95D-01  2.68D+00  9.38D-01  1.44D+00  1.26D+00
 CoulSu:  requested number of processors reduced to:  21 ShMem   1 Linda.
 E= -79.8147160410194     Delta-E=       -0.000000372876 Rises=F Damp=F
 DIIS: error= 9.09D-06 at cycle   6 NSaved=   6.
 NSaved= 6 IEnMin= 6 EnMin= -79.8147160410194     IErMin= 6 ErrMin= 9.09D-06
 ErrMax= 9.09D-06  0.00D+00 EMaxC= 1.00D-01 BMatC= 4.12D-09 BMatP= 3.79D-07
 IDIUse=1 WtCom= 1.00D+00 WtEn= 0.00D+00
 Coeff-Com: -0.456D-03 0.797D-03 0.322D-02-0.455D-02-0.161D+00 0.116D+01
 Coeff:     -0.456D-03 0.797D-03 0.322D-02-0.455D-02-0.161D+00 0.116D+01
 Gap=     0.416 Goal=   None    Shift=    0.000
 RMSDP=3.22D-06 MaxDP=1.81D-04 DE=-3.73D-07 OVMax= 5.19D-05

 Cycle   7  Pass 1  IDiag  1:
 RMSU=  1.17D-06    CP:  9.95D-01  2.68D+00  9.39D-01  1.43D+00  1.27D+00
                    CP:  1.15D+00
 CoulSu:  requested number of processors reduced to:  21 ShMem   1 Linda.
 E= -79.8147160475036     Delta-E=       -0.000000006484 Rises=F Damp=F
 DIIS: error= 7.93D-07 at cycle   7 NSaved=   7.
 NSaved= 7 IEnMin= 7 EnMin= -79.8147160475036     IErMin= 7 ErrMin= 7.93D-07
 ErrMax= 7.93D-07  0.00D+00 EMaxC= 1.00D-01 BMatC= 7.25D-11 BMatP= 4.12D-09
 IDIUse=1 WtCom= 1.00D+00 WtEn= 0.00D+00
 Coeff-Com: -0.582D-04 0.140D-03 0.287D-03-0.149D-02-0.245D-01 0.818D-01
 Coeff-Com:  0.944D+00
 Coeff:     -0.582D-04 0.140D-03 0.287D-03-0.149D-02-0.245D-01 0.818D-01
 Coeff:      0.944D+00
 Gap=     0.416 Goal=   None    Shift=    0.000
 RMSDP=4.92D-07 MaxDP=2.35D-05 DE=-6.48D-09 OVMax= 4.84D-06

 Cycle   8  Pass 1  IDiag  1:
 RMSU=  7.13D-08    CP:  9.95D-01  2.68D+00  9.39D-01  1.43D+00  1.27D+00
                    CP:  1.15D+00  8.95D-01
 CoulSu:  requested number of processors reduced to:  21 ShMem   1 Linda.
 E= -79.8147160475740     Delta-E=       -0.000000000070 Rises=F Damp=F
 DIIS: error= 1.08D-07 at cycle   8 NSaved=   8.
 NSaved= 8 IEnMin= 8 EnMin= -79.8147160475740     IErMin= 8 ErrMin= 1.08D-07
 ErrMax= 1.08D-07  0.00D+00 EMaxC= 1.00D-01 BMatC= 1.06D-12 BMatP= 7.25D-11
 IDIUse=1 WtCom= 1.00D+00 WtEn= 0.00D+00
 Coeff-Com:  0.137D-05-0.624D-06-0.628D-05-0.203D-04 0.583D-03-0.227D-02
 Coeff-Com: -0.115D+00 0.112D+01
 Coeff:      0.137D-05-0.624D-06-0.628D-05-0.203D-04 0.583D-03-0.227D-02
 Coeff:     -0.115D+00 0.112D+01
 Gap=     0.416 Goal=   None    Shift=    0.000
 DSYEVD-2 returned Info=         645 IAlg= 4 N=   322 NDim=   322 NE2=      324176 trying  DSYEV.
 RMSDP=7.36D-08 MaxDP=3.37D-06 DE=-7.04D-11 OVMax= 7.22D-07

 Cycle   9  Pass 1  IDiag  1:
 RMSU=  5.74D-09    CP:  9.95D-01  2.68D+00  9.39D-01  1.43D+00  1.27D+00
                    CP:  1.16D+00  8.75D-01  1.12D+00
 CoulSu:  requested number of processors reduced to:  21 ShMem   1 Linda.
 E= -79.8147160475816     Delta-E=       -0.000000000008 Rises=F Damp=F
 DIIS: error= 9.71D-09 at cycle   9 NSaved=   9.
 NSaved= 9 IEnMin= 9 EnMin= -79.8147160475816     IErMin= 9 ErrMin= 9.71D-09
 ErrMax= 9.71D-09  0.00D+00 EMaxC= 1.00D-01 BMatC= 4.43D-15 BMatP= 1.06D-12
 IDIUse=1 WtCom= 1.00D+00 WtEn= 0.00D+00
 Coeff-Com:  0.352D-06-0.872D-06-0.595D-06 0.139D-04 0.103D-03-0.297D-03
 Coeff-Com: -0.101D-02-0.484D-01 0.105D+01
 Coeff:      0.352D-06-0.872D-06-0.595D-06 0.139D-04 0.103D-03-0.297D-03
 Coeff:     -0.101D-02-0.484D-01 0.105D+01
 Gap=     0.416 Goal=   None    Shift=    0.000
 DSYEVD-2 returned Info=       78488 IAlg= 4 N=   322 NDim=   322 NE2=      324176 trying  DSYEV.
 RMSDP=3.14D-09 MaxDP=1.58D-07 DE=-7.56D-12 OVMax= 7.11D-08

 SCF Done:  E(RM062X) =  -79.8147160476     A.U. after    9 cycles
            NFock=  9  Conv=0.31D-08     -V/T= 2.0049
 KE= 7.942885541817D+01 PE=-2.689493284264D+02 EE= 6.733421316443D+01
 Leave Link  502 at Sat Apr 17 07:14:26 2021, MaxMem=   104857600 cpu:            1972.9 elap:              45.6
 (Enter /s/ls4/users/knvvv/bin/g16sse/l601.exe)
 Copying SCF densities to generalized density rwf, IOpCl= 0 IROHF=0.

 **********************************************************************

            Population analysis using the SCF density.

 **********************************************************************

 Orbital symmetries:
       Occupied  (A1G) (A2U) (A1G) (A2U) (EU) (EU) (A1G) (EG) (EG)
       Virtual   (A1G) (A2U) (EU) (EU) (A1G) (EG) (EG) (EG) (EG)
                 (EU) (EU) (A2U) (A1G) (A2U) (EU) (EU) (A2U) (A1U)
                 (A1G) (EG) (EG) (EU) (EU) (EG) (EG) (A2G) (A1G)
                 (EG) (EG) (A2U) (EU) (EU) (A1G) (EG) (EG) (A2U)
                 (EU) (EU) (EU) (EU) (A2U) (EG) (EG) (EU) (EU)
                 (A1G) (A2U) (EU) (EU) (A2U) (A1G) (EG) (EG) (A1U)
                 (EU) (EU) (EG) (EG) (A1G) (EG) (EG) (A2G) (EU)
                 (EU) (A2U) (A1G) (A2U) (EG) (EG) (A2U) (EU) (EU)
                 (EU) (EU) (EG) (EG) (A1G) (A1G) (A2U) (EG) (EG)
                 (A1G) (EU) (EU) (EG) (EG) (EU) (EU) (A2U) (A1U)
                 (A1G) (EG) (EG) (EU) (EU) (EG) (EG) (A2G) (EU)
                 (EU) (A2U) (EG) (EG) (EU) (EU) (A1U) (A1G) (A2U)
                 (EU) (EU) (A2G) (EG) (EG) (A2U) (A1G) (EU) (EU)
                 (A2U) (EG) (EG) (EG) (EG) (EU) (EU) (A2U) (A1G)
                 (EG) (EG) (EU) (EU) (A1U) (A1G) (EG) (EG) (A2G)
                 (A1G) (A2U) (EU) (EU) (EG) (EG) (A1U) (A1G) (EU)
                 (EU) (EG) (EG) (A1G) (A2U) (EU) (EU) (A2U) (A1G)
                 (EG) (EG) (EU) (EU) (A2G) (A1G) (EG) (EG) (EU)
                 (EU) (A2U) (EG) (EG) (EU) (EU) (A2U) (EG) (EG)
                 (EU) (EU) (A1U) (EG) (EG) (EU) (EU) (A2G) (A1G)
                 (EU) (EU) (A2U) (EG) (EG) (A2G) (EU) (EU) (A1U)
                 (EG) (EG) (A2U) (A1G) (EG) (EG) (A1U) (A2U) (EU)
                 (EU) (EG) (EG) (A2G) (A1G) (A2U) (A1G) (EU) (EU)
                 (EG) (EG) (EU) (EU) (A1G) (EU) (EU) (A1U) (EG)
                 (EG) (EU) (EU) (A1G) (A2U) (A2U) (EG) (EG) (A2G)
                 (A1G) (EU) (EU) (EG) (EG) (A1G) (EU) (EU) (A1U)
                 (EG) (EG) (A2U) (EG) (EG) (A2U) (EG) (EG) (A1G)
                 (EU) (EU) (A2G) (EU) (EU) (EG) (EG) (EU) (EU)
                 (A2U) (A1G) (A1U) (A2U) (EU) (EU) (EG) (EG) (A2G)
                 (EG) (EG) (EU) (EU) (A1G) (A2U) (A1G) (EU) (EU)
                 (EG) (EG) (A2U) (EG) (EG) (A1U) (EG) (EG) (EU)
                 (EU) (A1G) (EU) (EU) (A2G) (A2U) (A2U) (EG) (EG)
                 (EU) (EU) (EG) (EG) (EU) (EU) (A1G) (A2U) (A1G)
                 (EG) (EG) (A1U) (EU) (EU) (A2G) (EG) (EG) (EU)
                 (EU) (A2U) (A1G) (A1G) (A2U) (A1G) (A2U)
 The electronic state is 1-A1G.
 Alpha  occ. eigenvalues --  -10.52364 -10.52326  -0.85026  -0.70161  -0.50402
 Alpha  occ. eigenvalues --   -0.50402  -0.42833  -0.40384  -0.40384
 Alpha virt. eigenvalues --    0.01247   0.03161   0.07281   0.07281   0.10656
 Alpha virt. eigenvalues --    0.11138   0.11138   0.13686   0.13686   0.16709
 Alpha virt. eigenvalues --    0.16709   0.17261   0.19755   0.20657   0.20820
 Alpha virt. eigenvalues --    0.20820   0.22816   0.24114   0.28051   0.29491
 Alpha virt. eigenvalues --    0.29491   0.30256   0.30256   0.31179   0.31179
 Alpha virt. eigenvalues --    0.31468   0.32375   0.33174   0.33174   0.34570
 Alpha virt. eigenvalues --    0.36582   0.36582   0.37065   0.37733   0.37733
 Alpha virt. eigenvalues --    0.37892   0.40913   0.40913   0.41385   0.41385
 Alpha virt. eigenvalues --    0.46420   0.52687   0.52687   0.54285   0.54285
 Alpha virt. eigenvalues --    0.55856   0.59714   0.64704   0.64704   0.66083
 Alpha virt. eigenvalues --    0.66736   0.68876   0.68876   0.82131   0.85712
 Alpha virt. eigenvalues --    0.85712   0.85813   0.85813   0.85857   0.88705
 Alpha virt. eigenvalues --    0.88705   0.88827   0.90760   0.90760   0.93568
 Alpha virt. eigenvalues --    1.01215   1.02959   1.05446   1.05446   1.07456
 Alpha virt. eigenvalues --    1.10255   1.10255   1.20600   1.20600   1.21728
 Alpha virt. eigenvalues --    1.21728   1.22593   1.33397   1.35118   1.40251
 Alpha virt. eigenvalues --    1.40251   1.42083   1.45092   1.45092   1.48408
 Alpha virt. eigenvalues --    1.48408   1.53121   1.53121   1.59929   1.82411
 Alpha virt. eigenvalues --    1.89130   1.90891   1.90891   1.92102   1.92102
 Alpha virt. eigenvalues --    2.00946   2.00946   2.05418   2.10515   2.10515
 Alpha virt. eigenvalues --    2.13523   2.17569   2.17569   2.17599   2.17599
 Alpha virt. eigenvalues --    2.17789   2.17928   2.18913   2.22958   2.22958
 Alpha virt. eigenvalues --    2.23907   2.23934   2.23934   2.25966   2.38470
 Alpha virt. eigenvalues --    2.45210   2.45210   2.52566   2.57549   2.57549
 Alpha virt. eigenvalues --    2.64131   2.64131   2.67947   2.67947   2.73252
 Alpha virt. eigenvalues --    2.81080   2.82880   2.82880   2.85080   2.85080
 Alpha virt. eigenvalues --    2.86127   2.87766   2.94096   2.94096   2.99003
 Alpha virt. eigenvalues --    3.02080   3.03158   3.04179   3.04179   3.11925
 Alpha virt. eigenvalues --    3.11925   3.12486   3.16258   3.19639   3.19639
 Alpha virt. eigenvalues --    3.31759   3.31759   3.34254   3.37364   3.39169
 Alpha virt. eigenvalues --    3.39169   3.59363   3.59944   3.69997   3.69997
 Alpha virt. eigenvalues --    3.74795   3.74795   3.87349   3.89021   3.92137
 Alpha virt. eigenvalues --    3.92137   3.92937   3.92937   3.94778   4.17168
 Alpha virt. eigenvalues --    4.17168   4.29419   4.29419   4.66023   5.09812
 Alpha virt. eigenvalues --    5.09812   5.17831   5.17831   5.28847   5.42454
 Alpha virt. eigenvalues --    5.42454   5.49629   5.49629   5.49789   5.52378
 Alpha virt. eigenvalues --    5.69160   5.69160   5.73637   5.77819   5.77819
 Alpha virt. eigenvalues --    5.79478   5.81905   5.81905   5.82749   5.85529
 Alpha virt. eigenvalues --    5.85529   5.92799   5.94216   6.03240   6.03240
 Alpha virt. eigenvalues --    6.03255   6.04431   6.12218   6.12218   6.17128
 Alpha virt. eigenvalues --    6.17128   6.19283   6.20283   6.30737   6.33463
 Alpha virt. eigenvalues --    6.33810   6.33810   6.39822   6.39822   6.48799
 Alpha virt. eigenvalues --    6.48799   6.59301   6.60671   6.60671   6.65035
 Alpha virt. eigenvalues --    6.68304   6.68304   6.75264   6.75264   6.87217
 Alpha virt. eigenvalues --    6.90242   6.98270   7.05035   7.05035   7.14915
 Alpha virt. eigenvalues --    7.19624   7.29100   7.29100   7.31406   7.31406
 Alpha virt. eigenvalues --    7.33414   7.36075   7.36075   7.36942   7.45750
 Alpha virt. eigenvalues --    7.45750   7.49115   7.49957   7.49957   7.57787
 Alpha virt. eigenvalues --    7.59204   7.59204   7.60230   7.60404   7.60404
 Alpha virt. eigenvalues --    7.72104   7.72400   7.72400   7.80116   7.80116
 Alpha virt. eigenvalues --    7.92825   7.92825   7.93528   7.99521   8.14537
 Alpha virt. eigenvalues --    8.14994   8.15918   8.15918   8.20722   8.20722
 Alpha virt. eigenvalues --    8.26195   8.27838   8.27838   8.28863   8.28863
 Alpha virt. eigenvalues --    8.31220   8.38914   8.43278   8.43712   8.43712
 Alpha virt. eigenvalues --    8.46281   8.46281   8.56592   8.60674   8.60674
 Alpha virt. eigenvalues --    8.65688   8.80624   8.80624   8.87858   8.87858
 Alpha virt. eigenvalues --    8.89202   8.95153   8.95153   8.97143   9.24949
 Alpha virt. eigenvalues --    9.55405   9.58915   9.58915   9.61394   9.61394
 Alpha virt. eigenvalues --    9.71412   9.71412   9.71838   9.71838   9.73594
 Alpha virt. eigenvalues --   10.00256  10.08480  10.08524  10.08524  10.12197
 Alpha virt. eigenvalues --   10.23486  10.23486  10.49156  11.73648  11.73648
 Alpha virt. eigenvalues --   11.86029  11.86029  13.15171  13.17143  29.14980
 Alpha virt. eigenvalues --   29.20025 146.65538 146.69996
          Condensed to atoms (all electrons):
               1          2          3          4          5          6
     1  C    5.714365  -0.125740   0.473609   0.473609   0.473609  -0.235419
     2  C   -0.125740   5.714365  -0.235419  -0.235419  -0.235419   0.473609
     3  H    0.473609  -0.235419   0.688542   0.046551   0.046551  -0.032839
     4  H    0.473609  -0.235419   0.046551   0.688542   0.046551  -0.032839
     5  H    0.473609  -0.235419   0.046551   0.046551   0.688542  -0.055222
     6  H   -0.235419   0.473609  -0.032839  -0.032839  -0.055222   0.688542
     7  H   -0.235419   0.473609  -0.032839  -0.055222  -0.032839   0.046551
     8  H   -0.235419   0.473609  -0.055222  -0.032839  -0.032839   0.046551
               7          8
     1  C   -0.235419  -0.235419
     2  C    0.473609   0.473609
     3  H   -0.032839  -0.055222
     4  H   -0.055222  -0.032839
     5  H   -0.032839  -0.032839
     6  H    0.046551   0.046551
     7  H    0.688542   0.046551
     8  H    0.046551   0.688542
 Mulliken charges:
               1
     1  C   -0.303195
     2  C   -0.303195
     3  H    0.101065
     4  H    0.101065
     5  H    0.101065
     6  H    0.101065
     7  H    0.101065
     8  H    0.101065
 Sum of Mulliken charges =  -0.00000
 Mulliken charges with hydrogens summed into heavy atoms:
               1
     1  C   -0.000000
     2  C   -0.000000
 Electronic spatial extent (au):  <R**2>=            109.3504
 Charge=             -0.0000 electrons
 Dipole moment (field-independent basis, Debye):
    X=             -0.0000    Y=              0.0000    Z=              0.0000  Tot=              0.0000
 Quadrupole moment (field-independent basis, Debye-Ang):
   XX=            -14.9223   YY=            -14.9223   ZZ=            -15.6365
   XY=              0.0000   XZ=             -0.0000   YZ=             -0.0000
 Traceless Quadrupole moment (field-independent basis, Debye-Ang):
   XX=              0.2381   YY=              0.2381   ZZ=             -0.4762
   XY=              0.0000   XZ=             -0.0000   YZ=             -0.0000
 Octapole moment (field-independent basis, Debye-Ang**2):
  XXX=              0.0000  YYY=              0.0000  ZZZ=              0.0000  XYY=             -0.0000
  XXY=              0.0000  XXZ=              0.0000  XZZ=              0.0000  YZZ=              0.0000
  YYZ=              0.0000  XYZ=             -0.0000
 Hexadecapole moment (field-independent basis, Debye-Ang**3):
 XXXX=            -30.0664 YYYY=            -30.0664 ZZZZ=            -96.1135 XXXY=              0.0000
 XXXZ=              0.0000 YYYX=             -0.0000 YYYZ=              1.4856 ZZZX=             -0.0000
 ZZZY=              0.0000 XXYY=            -10.0221 XXZZ=            -19.8323 YYZZ=            -19.8323
 XXYZ=             -1.4856 YYXZ=              0.0000 ZZXY=              0.0000
 N-N= 4.237154379624D+01 E-N=-2.689493286503D+02  KE= 7.942885541817D+01
 PrsmSu:  requested number of processors reduced to:  21 ShMem   1 Linda.
 No NMR shielding tensors so no spin-rotation constants.
 Leave Link  601 at Sat Apr 17 07:14:37 2021, MaxMem=   104857600 cpu:             536.8 elap:              11.6
 (Enter /s/ls4/users/knvvv/bin/g16sse/l801.exe)
 DoSCS=F DFT=T ScalE2(SS,OS)=  1.000000  1.000000
 Range of M.O.s used for correlation:     1   322
 NBasis=   324 NAE=     9 NBE=     9 NFC=     0 NFV=     0
 NROrb=    322 NOA=     9 NOB=     9 NVA=   313 NVB=   313

 **** Warning!!: The largest alpha MO coefficient is  0.20949125D+03

 Leave Link  801 at Sat Apr 17 07:14:38 2021, MaxMem=   104857600 cpu:               4.0 elap:               0.1
 (Enter /s/ls4/users/knvvv/bin/g16sse/l914.exe)
 RHF ground state
 Doing stability rather than CIS.
 Two-electron integrals replicated using symmetry.
 MDV=   104857600 DFT=T DoStab=T Mixed=T DoRPA=F DoScal=F NonHer=F
 Making orbital integer symmetry assigments:
 Orbital symmetries:
       Occupied  (A1G) (A2U) (A1G) (A2U) (EU) (EU) (A1G) (EG) (EG)
       Virtual   (A1G) (A2U) (EU) (EU) (A1G) (EG) (EG) (EG) (EG)
                 (EU) (EU) (A2U) (A1G) (A2U) (EU) (EU) (A2U) (A1U)
                 (A1G) (EG) (EG) (EU) (EU) (EG) (EG) (A2G) (A1G)
                 (EG) (EG) (A2U) (EU) (EU) (A1G) (EG) (EG) (A2U)
                 (EU) (EU) (EU) (EU) (A2U) (EG) (EG) (EU) (EU)
                 (A1G) (A2U) (EU) (EU) (A2U) (A1G) (EG) (EG) (A1U)
                 (EU) (EU) (EG) (EG) (A1G) (EG) (EG) (A2G) (EU)
                 (EU) (A2U) (A1G) (A2U) (EG) (EG) (A2U) (EU) (EU)
                 (EU) (EU) (EG) (EG) (A1G) (A1G) (A2U) (EG) (EG)
                 (A1G) (EU) (EU) (EG) (EG) (EU) (EU) (A2U) (A1U)
                 (A1G) (EG) (EG) (EU) (EU) (EG) (EG) (A2G) (EU)
                 (EU) (A2U) (EG) (EG) (EU) (EU) (A1U) (A1G) (A2U)
                 (EU) (EU) (A2G) (EG) (EG) (A2U) (A1G) (EU) (EU)
                 (A2U) (EG) (EG) (EG) (EG) (EU) (EU) (A2U) (A1G)
                 (EG) (EG) (EU) (EU) (A1U) (A1G) (EG) (EG) (A2G)
                 (A1G) (A2U) (EU) (EU) (EG) (EG) (A1U) (A1G) (EU)
                 (EU) (EG) (EG) (A1G) (A2U) (EU) (EU) (A2U) (A1G)
                 (EG) (EG) (EU) (EU) (A2G) (A1G) (EG) (EG) (EU)
                 (EU) (A2U) (EG) (EG) (EU) (EU) (A2U) (EG) (EG)
                 (EU) (EU) (A1U) (EG) (EG) (EU) (EU) (A2G) (A1G)
                 (EU) (EU) (A2U) (EG) (EG) (A2G) (EU) (EU) (A1U)
                 (EG) (EG) (A2U) (A1G) (EG) (EG) (A1U) (A2U) (EU)
                 (EU) (EG) (EG) (A2G) (A1G) (A2U) (A1G) (EU) (EU)
                 (EG) (EG) (EU) (EU) (A1G) (EU) (EU) (A1U) (EG)
                 (EG) (EU) (EU) (A1G) (A2U) (A2U) (EG) (EG) (A2G)
                 (A1G) (EU) (EU) (EG) (EG) (A1G) (EU) (EU) (A1U)
                 (EG) (EG) (A2U) (EG) (EG) (A2U) (EG) (EG) (A1G)
                 (EU) (EU) (A2G) (EU) (EU) (EG) (EG) (EU) (EU)
                 (A2U) (A1G) (A1U) (A2U) (EU) (EU) (EG) (EG) (A2G)
                 (EG) (EG) (EU) (EU) (A1G) (A2U) (A1G) (EU) (EU)
                 (EG) (EG) (A2U) (EG) (EG) (A1U) (EG) (EG) (EU)
                 (EU) (A1G) (EU) (EU) (A2G) (A2U) (A2U) (EG) (EG)
                 (EU) (EU) (EG) (EG) (EU) (EU) (A1G) (A2U) (A1G)
                 (EG) (EG) (A1U) (EU) (EU) (A2G) (EG) (EG) (EU)
                 (EU) (A2U) (A1G) (A1G) (A2U) (A1G) (A2U)
    24 initial guesses have been made.
 Convergence on wavefunction:    0.001000000000000
 Davidson Disk Diagonalization:  ConvIn= 1.00D-03 SkipCon=T Conv= 1.00D-03.
 Max sub-space:  2000 roots to seek:    24 dimension of matrix:         5634
 Iteration     1 Dimension    24 NMult     0 NNew     24
 Estimated number of processors is:   18
 CISAX will form     1 AO SS matrices at one time.
 NMat=     1 NSing=     1 JSym2X= 2.
 FoFJK:  IHMeth= 1 ICntrl=       0 DoSepK=F KAlg= 0 I1Cent=           0 FoldK=F
 IRaf= 990000000 NMat=       1 IRICut=       1 DoRegI=T DoRafI=F ISym2E= 2 IDoP0=0 IntGTp=1.
 FoFCou: FMM=F IPFlag=           0 FMFlag=      100000 FMFlg1=           0
         NFxFlg=           0 DoJE=F BraDBF=F KetDBF=F FulRan=T
         wScrn=  0.000000 ICntrl=         0 IOpCl=  0 I1Cent=           0 NGrid=           0
         NMat0=    1 NMatS0=      1 NMatT0=    0 NMatD0=    1 NMtDS0=    0 NMtDT0=    0
 Integrals replicated using symmetry in FoFCou.
 CoulSu:  requested number of processors reduced to:  17 ShMem   1 Linda.
 NMat=     1 NSing=     1 JSym2X= 2.
 CoulSu:  requested number of processors reduced to:  17 ShMem   1 Linda.
 NMat=     1 NSing=     1 JSym2X= 2.
 CoulSu:  requested number of processors reduced to:  17 ShMem   1 Linda.
 NMat=     1 NSing=     1 JSym2X= 2.
 CoulSu:  requested number of processors reduced to:  17 ShMem   1 Linda.
 NMat=     1 NSing=     1 JSym2X= 2.
 CoulSu:  requested number of processors reduced to:  17 ShMem   1 Linda.
 NMat=     1 NSing=     1 JSym2X= 2.
 CoulSu:  requested number of processors reduced to:  17 ShMem   1 Linda.
 NMat=     1 NSing=     1 JSym2X= 2.
 CoulSu:  requested number of processors reduced to:  17 ShMem   1 Linda.
 NMat=     1 NSing=     1 JSym2X= 2.
 CoulSu:  requested number of processors reduced to:  17 ShMem   1 Linda.
 NMat=     1 NSing=     1 JSym2X= 2.
 CoulSu:  requested number of processors reduced to:  17 ShMem   1 Linda.
 NMat=     1 NSing=     1 JSym2X= 2.
 CoulSu:  requested number of processors reduced to:  17 ShMem   1 Linda.
 NMat=     1 NSing=     1 JSym2X= 2.
 CoulSu:  requested number of processors reduced to:  17 ShMem   1 Linda.
 NMat=     1 NSing=     1 JSym2X= 2.
 CoulSu:  requested number of processors reduced to:  17 ShMem   1 Linda.
 NMat=     1 NSing=     0 JSym2X= 2.
 CoulSu:  requested number of processors reduced to:  17 ShMem   1 Linda.
 NMat=     1 NSing=     0 JSym2X= 2.
 CoulSu:  requested number of processors reduced to:  17 ShMem   1 Linda.
 NMat=     1 NSing=     0 JSym2X= 2.
 CoulSu:  requested number of processors reduced to:  17 ShMem   1 Linda.
 NMat=     1 NSing=     0 JSym2X= 2.
 CoulSu:  requested number of processors reduced to:  17 ShMem   1 Linda.
 NMat=     1 NSing=     0 JSym2X= 2.
 CoulSu:  requested number of processors reduced to:  17 ShMem   1 Linda.
 NMat=     1 NSing=     0 JSym2X= 2.
 CoulSu:  requested number of processors reduced to:  17 ShMem   1 Linda.
 NMat=     1 NSing=     0 JSym2X= 2.
 CoulSu:  requested number of processors reduced to:  17 ShMem   1 Linda.
 NMat=     1 NSing=     0 JSym2X= 2.
 CoulSu:  requested number of processors reduced to:  17 ShMem   1 Linda.
 NMat=     1 NSing=     0 JSym2X= 2.
 CoulSu:  requested number of processors reduced to:  17 ShMem   1 Linda.
 NMat=     1 NSing=     0 JSym2X= 2.
 CoulSu:  requested number of processors reduced to:  17 ShMem   1 Linda.
 NMat=     1 NSing=     0 JSym2X= 2.
 CoulSu:  requested number of processors reduced to:  17 ShMem   1 Linda.
 NMat=     1 NSing=     0 JSym2X= 2.
 CoulSu:  requested number of processors reduced to:  17 ShMem   1 Linda.
 New state      1 was old state      4
 Excitation Energies [eV] at current iteration:
 Root      1 :     8.970492469544332
 Root      2 :     8.970502657269334
 Root      3 :     9.071929087013165
 Root      4 :     9.071941230421871
 Root      5 :     9.531853555806839
 Root      6 :     9.693722594880452
 Root      7 :     9.693728547452679
 Root      8 :     9.818296014428054
 Root      9 :     9.818301174968562
 Root     10 :     9.919333018820417
 Root     11 :    10.404982226643840
 Root     12 :    10.507264581048420
 Root     13 :    10.526623275222260
 Root     14 :    10.533108005803460
 Root     15 :    10.568534514316610
 Root     16 :    10.568536428111520
 Root     17 :    10.586534802993570
 Root     18 :    10.586549245132590
 Root     19 :    10.680154575634660
 Root     20 :    11.096001942989280
 Root     21 :    11.096025781217160
 Root     22 :    11.208250859116390
 Root     23 :    11.208278925535320
 Root     24 :    11.300874761186170
 Iteration     2 Dimension    48 NMult    24 NNew     24
 Estimated number of processors is:   18
 CISAX will form     1 AO SS matrices at one time.
 NMat=     1 NSing=     1 JSym2X= 2.
 CoulSu:  requested number of processors reduced to:  17 ShMem   1 Linda.
 NMat=     1 NSing=     1 JSym2X= 2.
 CoulSu:  requested number of processors reduced to:  17 ShMem   1 Linda.
 NMat=     1 NSing=     1 JSym2X= 2.
 CoulSu:  requested number of processors reduced to:  17 ShMem   1 Linda.
 NMat=     1 NSing=     1 JSym2X= 2.
 CoulSu:  requested number of processors reduced to:  17 ShMem   1 Linda.
 NMat=     1 NSing=     1 JSym2X= 2.
 CoulSu:  requested number of processors reduced to:  17 ShMem   1 Linda.
 NMat=     1 NSing=     1 JSym2X= 2.
 CoulSu:  requested number of processors reduced to:  17 ShMem   1 Linda.
 NMat=     1 NSing=     1 JSym2X= 2.
 CoulSu:  requested number of processors reduced to:  17 ShMem   1 Linda.
 NMat=     1 NSing=     1 JSym2X= 2.
 CoulSu:  requested number of processors reduced to:  17 ShMem   1 Linda.
 NMat=     1 NSing=     1 JSym2X= 2.
 CoulSu:  requested number of processors reduced to:  17 ShMem   1 Linda.
 NMat=     1 NSing=     1 JSym2X= 2.
 CoulSu:  requested number of processors reduced to:  17 ShMem   1 Linda.
 NMat=     1 NSing=     1 JSym2X= 2.
 CoulSu:  requested number of processors reduced to:  17 ShMem   1 Linda.
 NMat=     1 NSing=     1 JSym2X= 2.
 CoulSu:  requested number of processors reduced to:  17 ShMem   1 Linda.
 NMat=     1 NSing=     0 JSym2X= 2.
 CoulSu:  requested number of processors reduced to:  17 ShMem   1 Linda.
 NMat=     1 NSing=     0 JSym2X= 2.
 CoulSu:  requested number of processors reduced to:  17 ShMem   1 Linda.
 NMat=     1 NSing=     0 JSym2X= 2.
 CoulSu:  requested number of processors reduced to:  17 ShMem   1 Linda.
 NMat=     1 NSing=     0 JSym2X= 2.
 CoulSu:  requested number of processors reduced to:  17 ShMem   1 Linda.
 NMat=     1 NSing=     0 JSym2X= 2.
 CoulSu:  requested number of processors reduced to:  17 ShMem   1 Linda.
 NMat=     1 NSing=     0 JSym2X= 2.
 CoulSu:  requested number of processors reduced to:  17 ShMem   1 Linda.
 NMat=     1 NSing=     0 JSym2X= 2.
 CoulSu:  requested number of processors reduced to:  17 ShMem   1 Linda.
 NMat=     1 NSing=     0 JSym2X= 2.
 CoulSu:  requested number of processors reduced to:  17 ShMem   1 Linda.
 NMat=     1 NSing=     0 JSym2X= 2.
 CoulSu:  requested number of processors reduced to:  17 ShMem   1 Linda.
 NMat=     1 NSing=     0 JSym2X= 2.
 CoulSu:  requested number of processors reduced to:  17 ShMem   1 Linda.
 NMat=     1 NSing=     0 JSym2X= 2.
 CoulSu:  requested number of processors reduced to:  17 ShMem   1 Linda.
 NMat=     1 NSing=     0 JSym2X= 2.
 CoulSu:  requested number of processors reduced to:  17 ShMem   1 Linda.
 Root      1 not converged, maximum delta is    0.110897035354318
 Excitation Energies [eV] at current iteration:
 Root      1 :     8.679356184883808   Change is   -0.291136284660524
 Root      2 :     8.679412044160973   Change is   -0.291090613108362
 Root      3 :     8.931285175671334   Change is   -0.140643911341832
 Root      4 :     8.931307483549283   Change is   -0.140633746872588
 Root      5 :     9.270539151437777   Change is   -0.261314404369060
 Root      6 :     9.420521169233744   Change is   -0.273201425646709
 Root      7 :     9.420558571718562   Change is   -0.273169975734117
 Root      8 :     9.690454899674450   Change is   -0.127841114753604
 Root      9 :     9.690463169039516   Change is   -0.127838005929048
 Root     10 :     9.708199377487032   Change is   -0.211133641333385
 Root     11 :    10.129754013160540   Change is   -0.550400562474125
 Root     12 :    10.218812673317680   Change is   -0.186169553326167
 Root     13 :    10.352187046202770   Change is   -0.234347756790804
 Root     14 :    10.352214183859900   Change is   -0.234335061272699
 Root     15 :    10.413179002683620   Change is   -0.094085578364807
 Root     16 :    10.424773338400570   Change is   -0.101849936821693
 Root     17 :    10.430109600449980   Change is   -0.138424913866629
 Root     18 :    10.430112658376190   Change is   -0.138423769735329
 Root     19 :    10.441438515711520   Change is   -0.091669490091937
 Root     20 :    10.876916282217260   Change is   -0.423958478968918
 Root     21 :    10.931075076969940   Change is   -0.164926866019342
 Root     22 :    10.931126818012470   Change is   -0.164898963204688
 Root     23 :    11.094097617942480   Change is   -0.114153241173906
 Root     24 :    11.094128928517130   Change is   -0.114149997018186
 Iteration     3 Dimension    54 NMult    48 NNew      6
 Estimated number of processors is:   18
 CISAX will form     1 AO SS matrices at one time.
 NMat=     1 NSing=     1 JSym2X= 2.
 CoulSu:  requested number of processors reduced to:  17 ShMem   1 Linda.
 NMat=     1 NSing=     1 JSym2X= 2.
 CoulSu:  requested number of processors reduced to:  17 ShMem   1 Linda.
 NMat=     1 NSing=     1 JSym2X= 2.
 CoulSu:  requested number of processors reduced to:  17 ShMem   1 Linda.
 NMat=     1 NSing=     0 JSym2X= 2.
 CoulSu:  requested number of processors reduced to:  17 ShMem   1 Linda.
 NMat=     1 NSing=     0 JSym2X= 2.
 CoulSu:  requested number of processors reduced to:  17 ShMem   1 Linda.
 NMat=     1 NSing=     0 JSym2X= 2.
 CoulSu:  requested number of processors reduced to:  17 ShMem   1 Linda.
 Root      1 not converged, maximum delta is    0.017913053159212
 Excitation Energies [eV] at current iteration:
 Root      1 :     8.647577219435339   Change is   -0.031778965448468
 Root      2 :     8.647646264319107   Change is   -0.031765779841865
 Root      3 :     8.922265794140074   Change is   -0.009019381531259
 Root      4 :     8.922288602712532   Change is   -0.009018880836751
 Root      5 :     9.228751463303077   Change is   -0.041787688134702
 Root      6 :     9.680298971964319   Change is   -0.010155927710132
 Iteration     4 Dimension    60 NMult    54 NNew      6
 Estimated number of processors is:   18
 CISAX will form     1 AO SS matrices at one time.
 NMat=     1 NSing=     1 JSym2X= 2.
 CoulSu:  requested number of processors reduced to:  17 ShMem   1 Linda.
 NMat=     1 NSing=     1 JSym2X= 2.
 CoulSu:  requested number of processors reduced to:  17 ShMem   1 Linda.
 NMat=     1 NSing=     1 JSym2X= 2.
 CoulSu:  requested number of processors reduced to:  17 ShMem   1 Linda.
 NMat=     1 NSing=     0 JSym2X= 2.
 CoulSu:  requested number of processors reduced to:  17 ShMem   1 Linda.
 NMat=     1 NSing=     0 JSym2X= 2.
 CoulSu:  requested number of processors reduced to:  17 ShMem   1 Linda.
 NMat=     1 NSing=     0 JSym2X= 2.
 CoulSu:  requested number of processors reduced to:  17 ShMem   1 Linda.
 Root      1 not converged, maximum delta is    0.009076600574530
 Excitation Energies [eV] at current iteration:
 Root      1 :     8.642872696763600   Change is   -0.004704522671740
 Root      2 :     8.642944313868263   Change is   -0.004701950450845
 Root      3 :     8.921483021678604   Change is   -0.000782772461471
 Root      4 :     8.921505790143415   Change is   -0.000782812569117
 Root      5 :     9.209365870039731   Change is   -0.019385593263345
 Root      6 :     9.679757549655742   Change is   -0.000541422308576
 Iteration     5 Dimension    66 NMult    60 NNew      6
 Estimated number of processors is:   18
 CISAX will form     1 AO SS matrices at one time.
 NMat=     1 NSing=     1 JSym2X= 2.
 CoulSu:  requested number of processors reduced to:  17 ShMem   1 Linda.
 NMat=     1 NSing=     1 JSym2X= 2.
 CoulSu:  requested number of processors reduced to:  17 ShMem   1 Linda.
 NMat=     1 NSing=     1 JSym2X= 2.
 CoulSu:  requested number of processors reduced to:  17 ShMem   1 Linda.
 NMat=     1 NSing=     0 JSym2X= 2.
 CoulSu:  requested number of processors reduced to:  17 ShMem   1 Linda.
 NMat=     1 NSing=     0 JSym2X= 2.
 CoulSu:  requested number of processors reduced to:  17 ShMem   1 Linda.
 NMat=     1 NSing=     0 JSym2X= 2.
 CoulSu:  requested number of processors reduced to:  17 ShMem   1 Linda.
 Root      1 not converged, maximum delta is    0.002267088153644
 Excitation Energies [eV] at current iteration:
 Root      1 :     8.642473762931592   Change is   -0.000398933832009
 Root      2 :     8.642545508623423   Change is   -0.000398805244840
 Root      3 :     8.921401363557925   Change is   -0.000081658120679
 Root      4 :     8.921424125994593   Change is   -0.000081664148822
 Root      5 :     9.204717214811000   Change is   -0.004648655228732
 Root      6 :     9.679713500448276   Change is   -0.000044049207466
 Iteration     6 Dimension    72 NMult    66 NNew      6
 Estimated number of processors is:   18
 CISAX will form     1 AO SS matrices at one time.
 NMat=     1 NSing=     1 JSym2X= 2.
 CoulSu:  requested number of processors reduced to:  17 ShMem   1 Linda.
 NMat=     1 NSing=     1 JSym2X= 2.
 CoulSu:  requested number of processors reduced to:  17 ShMem   1 Linda.
 NMat=     1 NSing=     1 JSym2X= 2.
 CoulSu:  requested number of processors reduced to:  17 ShMem   1 Linda.
 NMat=     1 NSing=     0 JSym2X= 2.
 CoulSu:  requested number of processors reduced to:  17 ShMem   1 Linda.
 NMat=     1 NSing=     0 JSym2X= 2.
 CoulSu:  requested number of processors reduced to:  17 ShMem   1 Linda.
 NMat=     1 NSing=     0 JSym2X= 2.
 CoulSu:  requested number of processors reduced to:  17 ShMem   1 Linda.
 Root      1 has converged.
 Excitation Energies [eV] at current iteration:
 Root      1 :     8.642445050482317   Change is   -0.000028712449274
 Root      2 :     8.642516799063225   Change is   -0.000028709560197
 Root      3 :     8.921395517375760   Change is   -0.000005846182164
 Root      4 :     8.921418281410659   Change is   -0.000005844583934
 Root      5 :     9.203985671060071   Change is   -0.000731543750928
 Root      6 :     9.679711754967400   Change is   -0.000001745480875
 Convergence achieved on expansion vectors.
 ***********************************************************************
 Stability analysis using <AA,BB:AA,BB> singles matrix:
 ***********************************************************************
 1PDM for each excited state written to RWF  633
 Ground to excited state transition densities written to RWF  633

 Eigenvectors of the stability matrix:
 
 Eigenvector   1:      Triplet-EG   Eigenvalue= 0.3176040  <S**2>=2.000
       8 -> 10         0.65665
       8 -> 22        -0.12503
       9 -> 10        -0.16036
 The wavefunction is stable under the perturbations considered.
 Leave Link  914 at Sat Apr 17 07:25:32 2021, MaxMem=   104857600 cpu:           25995.7 elap:             654.3
 (Enter /s/ls4/users/knvvv/bin/g16sse/l508.exe)
 The wavefunction is already stable.
 Leave Link  508 at Sat Apr 17 07:25:32 2021, MaxMem=   104857600 cpu:               2.2 elap:               0.1
 (Enter /s/ls4/users/knvvv/bin/g16sse/l601.exe)
 Copying SCF densities to generalized density rwf, IOpCl= 0 IROHF=0.

 **********************************************************************

            Population analysis using the SCF density.

 **********************************************************************

 Orbital symmetries:
       Occupied  (A1G) (A2U) (A1G) (A2U) (EU) (EU) (A1G) (EG) (EG)
       Virtual   (A1G) (A2U) (EU) (EU) (A1G) (EG) (EG) (EG) (EG)
                 (EU) (EU) (A2U) (A1G) (A2U) (EU) (EU) (A2U) (A1U)
                 (A1G) (EG) (EG) (EU) (EU) (EG) (EG) (A2G) (A1G)
                 (EG) (EG) (A2U) (EU) (EU) (A1G) (EG) (EG) (A2U)
                 (EU) (EU) (EU) (EU) (A2U) (EG) (EG) (EU) (EU)
                 (A1G) (A2U) (EU) (EU) (A2U) (A1G) (EG) (EG) (A1U)
                 (EU) (EU) (EG) (EG) (A1G) (EG) (EG) (A2G) (EU)
                 (EU) (A2U) (A1G) (A2U) (EG) (EG) (A2U) (EU) (EU)
                 (EU) (EU) (EG) (EG) (A1G) (A1G) (A2U) (EG) (EG)
                 (A1G) (EU) (EU) (EG) (EG) (EU) (EU) (A2U) (A1U)
                 (A1G) (EG) (EG) (EU) (EU) (EG) (EG) (A2G) (EU)
                 (EU) (A2U) (EG) (EG) (EU) (EU) (A1U) (A1G) (A2U)
                 (EU) (EU) (A2G) (EG) (EG) (A2U) (A1G) (EU) (EU)
                 (A2U) (EG) (EG) (EG) (EG) (EU) (EU) (A2U) (A1G)
                 (EG) (EG) (EU) (EU) (A1U) (A1G) (EG) (EG) (A2G)
                 (A1G) (A2U) (EU) (EU) (EG) (EG) (A1U) (A1G) (EU)
                 (EU) (EG) (EG) (A1G) (A2U) (EU) (EU) (A2U) (A1G)
                 (EG) (EG) (EU) (EU) (A2G) (A1G) (EG) (EG) (EU)
                 (EU) (A2U) (EG) (EG) (EU) (EU) (A2U) (EG) (EG)
                 (EU) (EU) (A1U) (EG) (EG) (EU) (EU) (A2G) (A1G)
                 (EU) (EU) (A2U) (EG) (EG) (A2G) (EU) (EU) (A1U)
                 (EG) (EG) (A2U) (A1G) (EG) (EG) (A1U) (A2U) (EU)
                 (EU) (EG) (EG) (A2G) (A1G) (A2U) (A1G) (EU) (EU)
                 (EG) (EG) (EU) (EU) (A1G) (EU) (EU) (A1U) (EG)
                 (EG) (EU) (EU) (A1G) (A2U) (A2U) (EG) (EG) (A2G)
                 (A1G) (EU) (EU) (EG) (EG) (A1G) (EU) (EU) (A1U)
                 (EG) (EG) (A2U) (EG) (EG) (A2U) (EG) (EG) (A1G)
                 (EU) (EU) (A2G) (EU) (EU) (EG) (EG) (EU) (EU)
                 (A2U) (A1G) (A1U) (A2U) (EU) (EU) (EG) (EG) (A2G)
                 (EG) (EG) (EU) (EU) (A1G) (A2U) (A1G) (EU) (EU)
                 (EG) (EG) (A2U) (EG) (EG) (A1U) (EG) (EG) (EU)
                 (EU) (A1G) (EU) (EU) (A2G) (A2U) (A2U) (EG) (EG)
                 (EU) (EU) (EG) (EG) (EU) (EU) (A1G) (A2U) (A1G)
                 (EG) (EG) (A1U) (EU) (EU) (A2G) (EG) (EG) (EU)
                 (EU) (A2U) (A1G) (A1G) (A2U) (A1G) (A2U)
 The electronic state is 1-A1G.
 Alpha  occ. eigenvalues --  -10.52364 -10.52326  -0.85026  -0.70161  -0.50402
 Alpha  occ. eigenvalues --   -0.50402  -0.42833  -0.40384  -0.40384
 Alpha virt. eigenvalues --    0.01247   0.03161   0.07281   0.07281   0.10656
 Alpha virt. eigenvalues --    0.11138   0.11138   0.13686   0.13686   0.16709
 Alpha virt. eigenvalues --    0.16709   0.17261   0.19755   0.20657   0.20820
 Alpha virt. eigenvalues --    0.20820   0.22816   0.24114   0.28051   0.29491
 Alpha virt. eigenvalues --    0.29491   0.30256   0.30256   0.31179   0.31179
 Alpha virt. eigenvalues --    0.31468   0.32375   0.33174   0.33174   0.34570
 Alpha virt. eigenvalues --    0.36582   0.36582   0.37065   0.37733   0.37733
 Alpha virt. eigenvalues --    0.37892   0.40913   0.40913   0.41385   0.41385
 Alpha virt. eigenvalues --    0.46420   0.52687   0.52687   0.54285   0.54285
 Alpha virt. eigenvalues --    0.55856   0.59714   0.64704   0.64704   0.66083
 Alpha virt. eigenvalues --    0.66736   0.68876   0.68876   0.82131   0.85712
 Alpha virt. eigenvalues --    0.85712   0.85813   0.85813   0.85857   0.88705
 Alpha virt. eigenvalues --    0.88705   0.88827   0.90760   0.90760   0.93568
 Alpha virt. eigenvalues --    1.01215   1.02959   1.05446   1.05446   1.07456
 Alpha virt. eigenvalues --    1.10255   1.10255   1.20600   1.20600   1.21728
 Alpha virt. eigenvalues --    1.21728   1.22593   1.33397   1.35118   1.40251
 Alpha virt. eigenvalues --    1.40251   1.42083   1.45092   1.45092   1.48408
 Alpha virt. eigenvalues --    1.48408   1.53121   1.53121   1.59929   1.82411
 Alpha virt. eigenvalues --    1.89130   1.90891   1.90891   1.92102   1.92102
 Alpha virt. eigenvalues --    2.00946   2.00946   2.05418   2.10515   2.10515
 Alpha virt. eigenvalues --    2.13523   2.17569   2.17569   2.17599   2.17599
 Alpha virt. eigenvalues --    2.17789   2.17928   2.18913   2.22958   2.22958
 Alpha virt. eigenvalues --    2.23907   2.23934   2.23934   2.25966   2.38470
 Alpha virt. eigenvalues --    2.45210   2.45210   2.52566   2.57549   2.57549
 Alpha virt. eigenvalues --    2.64131   2.64131   2.67947   2.67947   2.73252
 Alpha virt. eigenvalues --    2.81080   2.82880   2.82880   2.85080   2.85080
 Alpha virt. eigenvalues --    2.86127   2.87766   2.94096   2.94096   2.99003
 Alpha virt. eigenvalues --    3.02080   3.03158   3.04179   3.04179   3.11925
 Alpha virt. eigenvalues --    3.11925   3.12486   3.16258   3.19639   3.19639
 Alpha virt. eigenvalues --    3.31759   3.31759   3.34254   3.37364   3.39169
 Alpha virt. eigenvalues --    3.39169   3.59363   3.59944   3.69997   3.69997
 Alpha virt. eigenvalues --    3.74795   3.74795   3.87349   3.89021   3.92137
 Alpha virt. eigenvalues --    3.92137   3.92937   3.92937   3.94778   4.17168
 Alpha virt. eigenvalues --    4.17168   4.29419   4.29419   4.66023   5.09812
 Alpha virt. eigenvalues --    5.09812   5.17831   5.17831   5.28847   5.42454
 Alpha virt. eigenvalues --    5.42454   5.49629   5.49629   5.49789   5.52378
 Alpha virt. eigenvalues --    5.69160   5.69160   5.73637   5.77819   5.77819
 Alpha virt. eigenvalues --    5.79478   5.81905   5.81905   5.82749   5.85529
 Alpha virt. eigenvalues --    5.85529   5.92799   5.94216   6.03240   6.03240
 Alpha virt. eigenvalues --    6.03255   6.04431   6.12218   6.12218   6.17128
 Alpha virt. eigenvalues --    6.17128   6.19283   6.20283   6.30737   6.33463
 Alpha virt. eigenvalues --    6.33810   6.33810   6.39822   6.39822   6.48799
 Alpha virt. eigenvalues --    6.48799   6.59301   6.60671   6.60671   6.65035
 Alpha virt. eigenvalues --    6.68304   6.68304   6.75264   6.75264   6.87217
 Alpha virt. eigenvalues --    6.90242   6.98270   7.05035   7.05035   7.14915
 Alpha virt. eigenvalues --    7.19624   7.29100   7.29100   7.31406   7.31406
 Alpha virt. eigenvalues --    7.33414   7.36075   7.36075   7.36942   7.45750
 Alpha virt. eigenvalues --    7.45750   7.49115   7.49957   7.49957   7.57787
 Alpha virt. eigenvalues --    7.59204   7.59204   7.60230   7.60404   7.60404
 Alpha virt. eigenvalues --    7.72104   7.72400   7.72400   7.80116   7.80116
 Alpha virt. eigenvalues --    7.92825   7.92825   7.93528   7.99521   8.14537
 Alpha virt. eigenvalues --    8.14994   8.15918   8.15918   8.20722   8.20722
 Alpha virt. eigenvalues --    8.26195   8.27838   8.27838   8.28863   8.28863
 Alpha virt. eigenvalues --    8.31220   8.38914   8.43278   8.43712   8.43712
 Alpha virt. eigenvalues --    8.46281   8.46281   8.56592   8.60674   8.60674
 Alpha virt. eigenvalues --    8.65688   8.80624   8.80624   8.87858   8.87858
 Alpha virt. eigenvalues --    8.89202   8.95153   8.95153   8.97143   9.24949
 Alpha virt. eigenvalues --    9.55405   9.58915   9.58915   9.61394   9.61394
 Alpha virt. eigenvalues --    9.71412   9.71412   9.71838   9.71838   9.73594
 Alpha virt. eigenvalues --   10.00256  10.08480  10.08524  10.08524  10.12197
 Alpha virt. eigenvalues --   10.23486  10.23486  10.49156  11.73648  11.73648
 Alpha virt. eigenvalues --   11.86029  11.86029  13.15171  13.17143  29.14980
 Alpha virt. eigenvalues --   29.20025 146.65538 146.69996
          Condensed to atoms (all electrons):
               1          2          3          4          5          6
     1  C    5.714365  -0.125740   0.473609   0.473609   0.473609  -0.235419
     2  C   -0.125740   5.714365  -0.235419  -0.235419  -0.235419   0.473609
     3  H    0.473609  -0.235419   0.688542   0.046551   0.046551  -0.032839
     4  H    0.473609  -0.235419   0.046551   0.688542   0.046551  -0.032839
     5  H    0.473609  -0.235419   0.046551   0.046551   0.688542  -0.055222
     6  H   -0.235419   0.473609  -0.032839  -0.032839  -0.055222   0.688542
     7  H   -0.235419   0.473609  -0.032839  -0.055222  -0.032839   0.046551
     8  H   -0.235419   0.473609  -0.055222  -0.032839  -0.032839   0.046551
               7          8
     1  C   -0.235419  -0.235419
     2  C    0.473609   0.473609
     3  H   -0.032839  -0.055222
     4  H   -0.055222  -0.032839
     5  H   -0.032839  -0.032839
     6  H    0.046551   0.046551
     7  H    0.688542   0.046551
     8  H    0.046551   0.688542
 Mulliken charges:
               1
     1  C   -0.303195
     2  C   -0.303195
     3  H    0.101065
     4  H    0.101065
     5  H    0.101065
     6  H    0.101065
     7  H    0.101065
     8  H    0.101065
 Sum of Mulliken charges =  -0.00000
 Mulliken charges with hydrogens summed into heavy atoms:
               1
     1  C   -0.000000
     2  C   -0.000000
 Electronic spatial extent (au):  <R**2>=            109.3504
 Charge=             -0.0000 electrons
 Dipole moment (field-independent basis, Debye):
    X=             -0.0000    Y=              0.0000    Z=              0.0000  Tot=              0.0000
 Quadrupole moment (field-independent basis, Debye-Ang):
   XX=            -14.9223   YY=            -14.9223   ZZ=            -15.6365
   XY=              0.0000   XZ=             -0.0000   YZ=             -0.0000
 Traceless Quadrupole moment (field-independent basis, Debye-Ang):
   XX=              0.2381   YY=              0.2381   ZZ=             -0.4762
   XY=              0.0000   XZ=             -0.0000   YZ=             -0.0000
 Octapole moment (field-independent basis, Debye-Ang**2):
  XXX=              0.0000  YYY=              0.0000  ZZZ=              0.0000  XYY=             -0.0000
  XXY=              0.0000  XXZ=              0.0000  XZZ=              0.0000  YZZ=              0.0000
  YYZ=              0.0000  XYZ=             -0.0000
 Hexadecapole moment (field-independent basis, Debye-Ang**3):
 XXXX=            -30.0664 YYYY=            -30.0664 ZZZZ=            -96.1135 XXXY=              0.0000
 XXXZ=              0.0000 YYYX=             -0.0000 YYYZ=              1.4856 ZZZX=             -0.0000
 ZZZY=              0.0000 XXYY=            -10.0221 XXZZ=            -19.8323 YYZZ=            -19.8323
 XXYZ=             -1.4856 YYXZ=              0.0000 ZZXY=              0.0000
 N-N= 4.237154379624D+01 E-N=-2.689493286503D+02  KE= 7.942885541817D+01
 PrsmSu:  requested number of processors reduced to:  21 ShMem   1 Linda.
 No NMR shielding tensors so no spin-rotation constants.
 Leave Link  601 at Sat Apr 17 07:25:43 2021, MaxMem=   104857600 cpu:             506.2 elap:              10.9
 (Enter /s/ls4/users/knvvv/bin/g16sse/l9999.exe)

 Test job not archived.
 1\1\GINC-N152\Stability\RM062X\Gen\C2H6\KNVVV\17-Apr-2021\0\\#P M062X/
 GEN Integral=UltraFineGrid SCF=NoSymm Stable=(RExt, Opt) IOp(1/33=1)\\
 Database calculations.\\0,1\C,0,0.,0.,-0.7616893817\C,0,0.,0.,0.761689
 3817\H,0,-0.8786002588,0.5072600959,-1.1557649758\H,0,0.,-1.0145201919
 ,-1.1557649758\H,0,0.8786002588,0.5072600959,-1.1557649758\H,0,-0.8786
 002588,-0.5072600959,1.1557649758\H,0,0.,1.0145201919,1.1557649758\H,0
 ,0.8786002588,-0.5072600959,1.1557649758\\Version=ES64L-G16RevA.03\Sta
 te=1-A1G\HF=-79.814716\RMSD=3.140e-09\Dipole=0.,0.,0.\Quadrupole=0.177
 0122,0.1770122,-0.3540244,0.,0.,0.\PG=D03D [C3(C1.C1),3SGD(H2)]\\@


 GARBAGE IN, GARBAGE OUT
 Job cpu time:       0 days  8 hours 29 minutes  0.6 seconds.
 Elapsed time:       0 days  0 hours 12 minutes 35.3 seconds.
 File lengths (MBytes):  RWF=    173 Int=      0 D2E=      0 Chk=     12 Scr=      1
 Normal termination of Gaussian 16 at Sat Apr 17 07:25:43 2021.
