 Entering Gaussian System, Link 0=/s/ls4/users/knvvv/bin/g16sse/g16
 Input=data/database/M062X--def2-QZVP--Z_014_de2-QZVP_N.gjf
 Output=data/database/M062X--def2-QZVP--Z_014_de2-QZVP_N.log
 Initial command:
 /s/ls4/users/knvvv/bin/g16sse/l1.exe "/s/ls4/users/knvvv/bin/scratch/Gau-30753.inp" -scrdir="/s/ls4/users/knvvv/bin/scratch/"
 Entering Link 1 = /s/ls4/users/knvvv/bin/g16sse/l1.exe PID=     30754.
  
 Copyright (c) 1988,1990,1992,1993,1995,1998,2003,2009,2016,
            Gaussian, Inc.  All Rights Reserved.
  
 This is part of the Gaussian(R) 16 program.  It is based on
 the Gaussian(R) 09 system (copyright 2009, Gaussian, Inc.),
 the Gaussian(R) 03 system (copyright 2003, Gaussian, Inc.),
 the Gaussian(R) 98 system (copyright 1998, Gaussian, Inc.),
 the Gaussian(R) 94 system (copyright 1995, Gaussian, Inc.),
 the Gaussian 92(TM) system (copyright 1992, Gaussian, Inc.),
 the Gaussian 90(TM) system (copyright 1990, Gaussian, Inc.),
 the Gaussian 88(TM) system (copyright 1988, Gaussian, Inc.),
 the Gaussian 86(TM) system (copyright 1986, Carnegie Mellon
 University), and the Gaussian 82(TM) system (copyright 1983,
 Carnegie Mellon University). Gaussian is a federally registered
 trademark of Gaussian, Inc.
  
 This software contains proprietary and confidential information,
 including trade secrets, belonging to Gaussian, Inc.
  
 This software is provided under written license and may be
 used, copied, transmitted, or stored only in accord with that
 written license.
  
 The following legend is applicable only to US Government
 contracts under FAR:
  
                    RESTRICTED RIGHTS LEGEND
  
 Use, reproduction and disclosure by the US Government is
 subject to restrictions as set forth in subparagraphs (a)
 and (c) of the Commercial Computer Software - Restricted
 Rights clause in FAR 52.227-19.
  
 Gaussian, Inc.
 340 Quinnipiac St., Bldg. 40, Wallingford CT 06492
  
  
 ---------------------------------------------------------------
 Warning -- This program may not be used in any manner that
 competes with the business of Gaussian, Inc. or will provide
 assistance to any competitor of Gaussian, Inc.  The licensee
 of this program is prohibited from giving any competitor of
 Gaussian, Inc. access to this program.  By using this program,
 the user acknowledges that Gaussian, Inc. is engaged in the
 business of creating and licensing software in the field of
 computational chemistry and represents and warrants to the
 licensee that it is not a competitor of Gaussian, Inc. and that
 it will not use this program in any manner prohibited above.
 ---------------------------------------------------------------
  

 Cite this work as:
 Gaussian 16, Revision A.03,
 M. J. Frisch, G. W. Trucks, H. B. Schlegel, G. E. Scuseria, 
 M. A. Robb, J. R. Cheeseman, G. Scalmani, V. Barone, 
 G. A. Petersson, H. Nakatsuji, X. Li, M. Caricato, A. V. Marenich, 
 J. Bloino, B. G. Janesko, R. Gomperts, B. Mennucci, H. P. Hratchian, 
 J. V. Ortiz, A. F. Izmaylov, J. L. Sonnenberg, D. Williams-Young, 
 F. Ding, F. Lipparini, F. Egidi, J. Goings, B. Peng, A. Petrone, 
 T. Henderson, D. Ranasinghe, V. G. Zakrzewski, J. Gao, N. Rega, 
 G. Zheng, W. Liang, M. Hada, M. Ehara, K. Toyota, R. Fukuda, 
 J. Hasegawa, M. Ishida, T. Nakajima, Y. Honda, O. Kitao, H. Nakai, 
 T. Vreven, K. Throssell, J. A. Montgomery, Jr., J. E. Peralta, 
 F. Ogliaro, M. J. Bearpark, J. J. Heyd, E. N. Brothers, K. N. Kudin, 
 V. N. Staroverov, T. A. Keith, R. Kobayashi, J. Normand, 
 K. Raghavachari, A. P. Rendell, J. C. Burant, S. S. Iyengar, 
 J. Tomasi, M. Cossi, J. M. Millam, M. Klene, C. Adamo, R. Cammi, 
 J. W. Ochterski, R. L. Martin, K. Morokuma, O. Farkas, 
 J. B. Foresman, and D. J. Fox, Gaussian, Inc., Wallingford CT, 2016.
 
 ******************************************
 Gaussian 16:  ES64L-G16RevA.03 25-Dec-2016
                18-Apr-2021 
 ******************************************
 %RWF=temp12_6250,70GB
 %nprocshared=48
 Will use up to   48 processors via shared memory.
 Default route: MaxDisk=80GB
 ----------------------------------------------------------------------
 #P M062X/Def2QZVP Integral=UltraFineGrid SCF=NoSymm Stable=(RExt, Opt)
  IOp(1/33=1)
 ----------------------------------------------------------------------
 1/33=1,38=1,172=1/1;
 2/12=2,17=6,18=5,40=1/2;
 3/5=45,7=101,11=2,25=1,30=1,74=-55,75=-5/1,2,3;
 4/9=2/1;
 5/5=2,38=5/2;
 6/7=2,8=2,9=2,10=2,28=1/1;
 8/6=1,10=90,11=11/1;
 9/8=-3,42=1,46=1/14;
 5/5=2,8=3,17=40,38=5/8(-2);
 6/7=2,8=2,9=2,10=2,28=1/1;
 99/5=1,9=1/99;
 Leave Link    1 at Sun Apr 18 07:20:57 2021, MaxMem=           0 cpu:               8.4 elap:               0.2
 (Enter /s/ls4/users/knvvv/bin/g16sse/l101.exe)
 ONIOM data not found on unit 2.
 ----------------------
 Database calculations.
 ----------------------
 TstMul:  ICh=     0
 TstMul:  Mul=     4
 TstMul:  ICh=     0
 TstMul:  Mul=     4
 Symbolic Z-matrix:
 Charge =  0 Multiplicity = 4
 N                     0.        0.        0. 
 
 RdStrC is calling ZToCFu for IStruc=1 NZ=     1.
 PrtBox:  NBox=     1 Levels=  0 BoxLen=    8.00 SMaxX=        0.00
          Shift=            0.000000            0.000000            0.000000
 Box      1 Number                   0 centers from      1 to      1:
 After GenITR:
 ITRead=  0
 MicOpt= -1
 ITRead=  0
 MicOpt= -1
 NAtoms=      1 NQM=        1 NQMF=       0 NMMI=      0 NMMIF=      0
                NMic=       0 NMicF=      0.
                    Isotopes and Nuclear Properties:
 (Nuclear quadrupole moments (NQMom) in fm**2, nuclear magnetic moments (NMagM)
  in nuclear magnetons)

  Atom         1
 IAtWgt=          14
 AtmWgt=  14.0030740
 NucSpn=           2
 AtZEff=  -0.0000000
 NQMom=    2.0440000
 NMagM=    0.4037610
 AtZNuc=   7.0000000
 No MM parameters found.
 Leave Link  101 at Sun Apr 18 07:20:58 2021, MaxMem=   104857600 cpu:               8.0 elap:               0.2
 (Enter /s/ls4/users/knvvv/bin/g16sse/l202.exe)
                          Input orientation:                          
 ---------------------------------------------------------------------
 Center     Atomic      Atomic             Coordinates (Angstroms)
 Number     Number       Type             X           Y           Z
 ---------------------------------------------------------------------
      1          7           0        0.000000    0.000000    0.000000
 ---------------------------------------------------------------------
 Stoichiometry    N(4)
 Framework group  OH[O(N)]
 Deg. of freedom     0
 Full point group                 OH      NOp  48
 Largest Abelian subgroup         D2H     NOp   8
 Largest concise Abelian subgroup C1      NOp   1
                         Standard orientation:                         
 ---------------------------------------------------------------------
 Center     Atomic      Atomic             Coordinates (Angstroms)
 Number     Number       Type             X           Y           Z
 ---------------------------------------------------------------------
      1          7           0        0.000000    0.000000    0.000000
 ---------------------------------------------------------------------
 Leave Link  202 at Sun Apr 18 07:20:58 2021, MaxMem=   104857600 cpu:              33.6 elap:               0.7
 (Enter /s/ls4/users/knvvv/bin/g16sse/l301.exe)
 Standard basis: def2QZVP (5D, 7F)
 Ernie: Thresh=  0.10000D-02 Tol=  0.10000D-05 Strict=F.
 There are    22 symmetry adapted cartesian basis functions of AG  symmetry.
 There are     6 symmetry adapted cartesian basis functions of B1G symmetry.
 There are     6 symmetry adapted cartesian basis functions of B2G symmetry.
 There are     6 symmetry adapted cartesian basis functions of B3G symmetry.
 There are     2 symmetry adapted cartesian basis functions of AU  symmetry.
 There are    10 symmetry adapted cartesian basis functions of B1U symmetry.
 There are    10 symmetry adapted cartesian basis functions of B2U symmetry.
 There are    10 symmetry adapted cartesian basis functions of B3U symmetry.
 There are    16 symmetry adapted basis functions of AG  symmetry.
 There are     5 symmetry adapted basis functions of B1G symmetry.
 There are     5 symmetry adapted basis functions of B2G symmetry.
 There are     5 symmetry adapted basis functions of B3G symmetry.
 There are     2 symmetry adapted basis functions of AU  symmetry.
 There are     8 symmetry adapted basis functions of B1U symmetry.
 There are     8 symmetry adapted basis functions of B2U symmetry.
 There are     8 symmetry adapted basis functions of B3U symmetry.
    57 basis functions,    92 primitive gaussians,    72 cartesian basis functions
     5 alpha electrons        2 beta electrons
       nuclear repulsion energy         0.0000000000 Hartrees.
 IExCor= 4336 DFT=T Ex+Corr=M062X ExCW=0 ScaHFX=  0.540000
 ScaDFX=  1.000000  1.000000  1.000000  1.000000 ScalE2=  1.000000  1.000000
 IRadAn=      5 IRanWt=     -1 IRanGd=            0 ICorTp=0 IEmpDi=  4
 NAtoms=    1 NActive=    1 NUniq=    1 SFac= 1.00D+00 NAtFMM=   60 NAOKFM=F Big=F
 Integral buffers will be    131072 words long.
 Raffenetti 2 integral format.
 Two-electron integral symmetry is turned on.
 Leave Link  301 at Sun Apr 18 07:20:58 2021, MaxMem=   104857600 cpu:               6.3 elap:               0.2
 (Enter /s/ls4/users/knvvv/bin/g16sse/l302.exe)
 NPDir=0 NMtPBC=     1 NCelOv=     1 NCel=       1 NClECP=     1 NCelD=      1
         NCelK=      1 NCelE2=     1 NClLst=     1 CellRange=     0.0.
 One-electron integrals computed using PRISM.
 One-electron integral symmetry used in STVInt
 PrsmSu:  requested number of processors reduced to:   4 ShMem   1 Linda.
 PrsmSu:  requested number of processors reduced to:  21 ShMem   1 Linda.
  48 Symmetry operations used in ECPInt.
 ECPInt:  NShTT=     153 NPrTT=     474 LenC2=     154 LenP2D=     474.
 LDataN:  DoStor=T MaxTD1= 8 Len=  415
 NBasis=    57 RedAO= T EigKep=  5.95D-03  NBF=    16     5     5     5     2     8     8     8
 NBsUse=    57 1.00D-06 EigRej= -1.00D+00 NBFU=    16     5     5     5     2     8     8     8
 Precomputing XC quadrature grid using
 IXCGrd= 4 IRadAn=           5 IRanWt=          -1 IRanGd=           0 AccXCQ= 0.00D+00.
 Generated NRdTot=       0 NPtTot=           0 NUsed=           0 NTot=          32
 NSgBfM=    72    72    72    72    72 MxSgAt=     1 MxSgA2=     1.
 Leave Link  302 at Sun Apr 18 07:21:17 2021, MaxMem=   104857600 cpu:             857.1 elap:              18.3
 (Enter /s/ls4/users/knvvv/bin/g16sse/l303.exe)
 DipDrv:  MaxL=1.
 Leave Link  303 at Sun Apr 18 07:21:17 2021, MaxMem=   104857600 cpu:              17.8 elap:               0.4
 (Enter /s/ls4/users/knvvv/bin/g16sse/l401.exe)
 SCF N**3 symmetry information disabled.
 ExpMin= 1.07D-01 ExpMax= 9.07D+04 ExpMxC= 8.76D+02 IAcc=3 IRadAn=         5 AccDes= 0.00D+00
 Harris functional with IExCor= 1009 and IRadAn=       5 diagonalized for initial guess.
 HarFok:  IExCor= 1009 AccDes= 0.00D+00 IRadAn=         5 IDoV= 1 UseB2=F ITyADJ=14
 ICtDFT=  3500011 ScaDFX=  1.000000  1.000000  1.000000  1.000000
 FoFCou: FMM=F IPFlag=           0 FMFlag=      100000 FMFlg1=           0
         NFxFlg=           0 DoJE=T BraDBF=F KetDBF=T FulRan=T
         wScrn=  0.000000 ICntrl=       500 IOpCl=  0 I1Cent=   200000004 NGrid=           0
         NMat0=    1 NMatS0=      1 NMatT0=    0 NMatD0=    1 NMtDS0=    0 NMtDT0=    0
 Petite list used in FoFCou.
 CoulSu:  requested number of processors reduced to:  21 ShMem   1 Linda.
 CoulSu:  requested number of processors reduced to:  21 ShMem   1 Linda.
 CoulSu:  requested number of processors reduced to:  21 ShMem   1 Linda.
 CoulSu:  requested number of processors reduced to:  21 ShMem   1 Linda.
 Harris En= -54.4120622577308    
 JPrj=0 DoOrth=F DoCkMO=F.
 Initial guess orbital symmetries:
 Alpha Orbitals:
       Occupied  (A1G) (A1G) (T1U) (T1U) (T1U)
       Virtual   (T1U) (T1U) (T1U) (A1G) (T2G) (T2G) (T2G) (EG)
                 (EG) (T1U) (T1U) (T1U) (A1G) (T2U) (T2U) (T2U)
                 (A2U) (T1U) (T1U) (T1U) (T2G) (T2G) (T2G) (EG)
                 (EG) (T1U) (T1U) (T1U) (T1G) (T1G) (T1G) (T2G)
                 (T2G) (T2G) (EG) (EG) (A1G) (T2U) (T2U) (T2U)
                 (A2U) (T1U) (T1U) (T1U) (T2G) (T2G) (T2G) (EG)
                 (EG) (A1G) (A1G) (A1G)
 Beta  Orbitals:
       Occupied  (A1G) (A1G)
       Virtual   (T1U) (T1U) (T1U) (T1U) (T1U) (T1U) (A1G) (T2G)
                 (T2G) (T2G) (EG) (EG) (T1U) (T1U) (T1U) (A1G)
                 (T2U) (T2U) (T2U) (A2U) (T1U) (T1U) (T1U) (T2G)
                 (T2G) (T2G) (EG) (EG) (T1U) (T1U) (T1U) (T1G)
                 (T1G) (T1G) (T2G) (T2G) (T2G) (EG) (EG) (A1G)
                 (T2U) (T2U) (T2U) (A2U) (T1U) (T1U) (T1U) (T2G)
                 (T2G) (T2G) (EG) (EG) (A1G) (A1G) (A1G)
 The electronic state of the initial guess is 4-A1G.
 Initial guess <Sx>= 0.0000 <Sy>= 0.0000 <Sz>= 1.5000 <S**2>= 3.7500 S= 1.5000
 Leave Link  401 at Sun Apr 18 07:21:27 2021, MaxMem=   104857600 cpu:             443.7 elap:               9.6
 (Enter /s/ls4/users/knvvv/bin/g16sse/l502.exe)
 Keep R1 and R2 ints in memory in symmetry-blocked form, NReq=55529561.
 FoFCou: FMM=F IPFlag=           0 FMFlag=           0 FMFlg1=           0
         NFxFlg=           0 DoJE=F BraDBF=F KetDBF=F FulRan=T
         wScrn=  0.000000 ICntrl=       600 IOpCl=  0 I1Cent=           0 NGrid=           0
         NMat0=    1 NMatS0=   1653 NMatT0=    0 NMatD0=    1 NMtDS0=    0 NMtDT0=    0
 Petite list used in FoFCou.
 CoulSu:  requested number of processors reduced to:  22 ShMem   1 Linda.
 UHF open shell SCF:
 Using DIIS extrapolation, IDIIS=  1040.
 NGot=   104857600 LenX=   104476926 LenY=   104471301
 Requested convergence on RMS density matrix=1.00D-08 within 128 cycles.
 Requested convergence on MAX density matrix=1.00D-06.
 Requested convergence on             energy=1.00D-06.
 No special actions if energy rises.
 Integral accuracy reduced to 1.0D-05 until final iterations.

 Cycle   1  Pass 0  IDiag  1:
 E= -54.5717940108111    
 DIIS: error= 5.32D-02 at cycle   1 NSaved=   1.
 NSaved= 1 IEnMin= 1 EnMin= -54.5717940108111     IErMin= 1 ErrMin= 5.32D-02
 ErrMax= 5.32D-02  0.00D+00 EMaxC= 1.00D-01 BMatC= 1.37D-01 BMatP= 1.37D-01
 IDIUse=3 WtCom= 4.68D-01 WtEn= 5.32D-01
 Coeff-Com:  0.100D+01
 Coeff-En:   0.100D+01
 Coeff:      0.100D+01
 Gap=     0.727 Goal=   None    Shift=    0.000
 Gap=     0.662 Goal=   None    Shift=    0.000
 GapD=    0.662 DampG=2.000 DampE=0.500 DampFc=1.0000 IDamp=-1.
 RMSDP=2.12D-03 MaxDP=3.13D-02              OVMax= 8.77D-02

 Cycle   2  Pass 0  IDiag  1:
 E= -54.5881320098793     Delta-E=       -0.016337999068 Rises=F Damp=F
 DIIS: error= 2.45D-02 at cycle   2 NSaved=   2.
 NSaved= 2 IEnMin= 2 EnMin= -54.5881320098793     IErMin= 2 ErrMin= 2.45D-02
 ErrMax= 2.45D-02  0.00D+00 EMaxC= 1.00D-01 BMatC= 1.66D-02 BMatP= 1.37D-01
 IDIUse=3 WtCom= 7.55D-01 WtEn= 2.45D-01
 Coeff-Com:  0.188D+00 0.812D+00
 Coeff-En:   0.000D+00 0.100D+01
 Coeff:      0.142D+00 0.858D+00
 Gap=     0.686 Goal=   None    Shift=    0.000
 Gap=     0.633 Goal=   None    Shift=    0.000
 RMSDP=9.22D-04 MaxDP=2.89D-02 DE=-1.63D-02 OVMax= 3.27D-02

 Cycle   3  Pass 0  IDiag  1:
 E= -54.5907798256405     Delta-E=       -0.002647815761 Rises=F Damp=F
 DIIS: error= 4.84D-03 at cycle   3 NSaved=   3.
 NSaved= 3 IEnMin= 3 EnMin= -54.5907798256405     IErMin= 3 ErrMin= 4.84D-03
 ErrMax= 4.84D-03  0.00D+00 EMaxC= 1.00D-01 BMatC= 9.62D-04 BMatP= 1.66D-02
 IDIUse=3 WtCom= 9.52D-01 WtEn= 4.84D-02
 Coeff-Com: -0.266D-01 0.149D+00 0.878D+00
 Coeff-En:   0.000D+00 0.000D+00 0.100D+01
 Coeff:     -0.253D-01 0.142D+00 0.884D+00
 Gap=     0.693 Goal=   None    Shift=    0.000
 Gap=     0.631 Goal=   None    Shift=    0.000
 RMSDP=1.95D-04 MaxDP=4.82D-03 DE=-2.65D-03 OVMax= 7.49D-03

 Cycle   4  Pass 0  IDiag  1:
 E= -54.5909989278765     Delta-E=       -0.000219102236 Rises=F Damp=F
 DIIS: error= 9.40D-04 at cycle   4 NSaved=   4.
 NSaved= 4 IEnMin= 4 EnMin= -54.5909989278765     IErMin= 4 ErrMin= 9.40D-04
 ErrMax= 9.40D-04  0.00D+00 EMaxC= 1.00D-01 BMatC= 1.58D-05 BMatP= 9.62D-04
 IDIUse=3 WtCom= 9.91D-01 WtEn= 9.40D-03
 Coeff-Com:  0.203D-02-0.574D-01-0.150D+00 0.120D+01
 Coeff-En:   0.000D+00 0.000D+00 0.000D+00 0.100D+01
 Coeff:      0.201D-02-0.568D-01-0.148D+00 0.120D+01
 Gap=     0.691 Goal=   None    Shift=    0.000
 Gap=     0.630 Goal=   None    Shift=    0.000
 RMSDP=4.50D-05 MaxDP=1.44D-03 DE=-2.19D-04 OVMax= 1.70D-03

 Cycle   5  Pass 0  IDiag  1:
 E= -54.5910030178606     Delta-E=       -0.000004089984 Rises=F Damp=F
 DIIS: error= 2.50D-05 at cycle   5 NSaved=   5.
 NSaved= 5 IEnMin= 5 EnMin= -54.5910030178606     IErMin= 5 ErrMin= 2.50D-05
 ErrMax= 2.50D-05  0.00D+00 EMaxC= 1.00D-01 BMatC= 3.11D-08 BMatP= 1.58D-05
 IDIUse=1 WtCom= 1.00D+00 WtEn= 0.00D+00
 Coeff-Com: -0.423D-04 0.621D-02 0.110D-01-0.141D+00 0.112D+01
 Coeff:     -0.423D-04 0.621D-02 0.110D-01-0.141D+00 0.112D+01
 Gap=     0.691 Goal=   None    Shift=    0.000
 Gap=     0.630 Goal=   None    Shift=    0.000
 RMSDP=2.26D-06 MaxDP=6.26D-05 DE=-4.09D-06 OVMax= 3.60D-05

 Initial convergence to 1.0D-05 achieved.  Increase integral accuracy.
 Cycle   6  Pass 1  IDiag  1:
 E= -54.5909529940554     Delta-E=        0.000050023805 Rises=F Damp=F
 DIIS: error= 8.76D-04 at cycle   1 NSaved=   1.
 NSaved= 1 IEnMin= 1 EnMin= -54.5909529940554     IErMin= 1 ErrMin= 8.76D-04
 ErrMax= 8.76D-04  0.00D+00 EMaxC= 1.00D-01 BMatC= 1.23D-05 BMatP= 1.23D-05
 IDIUse=3 WtCom= 9.91D-01 WtEn= 8.76D-03
 Coeff-Com:  0.100D+01
 Coeff-En:   0.100D+01
 Coeff:      0.100D+01
 Gap=     0.691 Goal=   None    Shift=    0.000
 DSYEVD-2 returned Info=        1739 IAlg= 4 N=    57 NDim=    57 NE2=     1832828 trying  DSYEV.
 Gap=     0.629 Goal=   None    Shift=    0.000
 RMSDP=2.26D-06 MaxDP=6.26D-05 DE= 5.00D-05 OVMax= 1.18D-04

 Cycle   7  Pass 1  IDiag  1:
 E= -54.5909532430700     Delta-E=       -0.000000249015 Rises=F Damp=F
 DIIS: error= 1.57D-05 at cycle   2 NSaved=   2.
 NSaved= 2 IEnMin= 2 EnMin= -54.5909532430700     IErMin= 2 ErrMin= 1.57D-05
 ErrMax= 1.57D-05  0.00D+00 EMaxC= 1.00D-01 BMatC= 1.15D-08 BMatP= 1.23D-05
 IDIUse=1 WtCom= 1.00D+00 WtEn= 0.00D+00
 Coeff-Com: -0.228D-01 0.102D+01
 Coeff:     -0.228D-01 0.102D+01
 Gap=     0.691 Goal=   None    Shift=    0.000
 Gap=     0.629 Goal=   None    Shift=    0.000
 RMSDP=7.26D-07 MaxDP=3.37D-05 DE=-2.49D-07 OVMax= 8.36D-06

 Cycle   8  Pass 1  IDiag  1:
 E= -54.5909532435905     Delta-E=       -0.000000000521 Rises=F Damp=F
 DIIS: error= 1.18D-06 at cycle   3 NSaved=   3.
 NSaved= 3 IEnMin= 3 EnMin= -54.5909532435905     IErMin= 3 ErrMin= 1.18D-06
 ErrMax= 1.18D-06  0.00D+00 EMaxC= 1.00D-01 BMatC= 4.18D-11 BMatP= 1.15D-08
 IDIUse=1 WtCom= 1.00D+00 WtEn= 0.00D+00
 Coeff-Com:  0.739D-03-0.422D-01 0.104D+01
 Coeff:      0.739D-03-0.422D-01 0.104D+01
 Gap=     0.691 Goal=   None    Shift=    0.000
 Gap=     0.629 Goal=   None    Shift=    0.000
 RMSDP=7.25D-08 MaxDP=2.66D-06 DE=-5.21D-10 OVMax= 2.40D-06

 Cycle   9  Pass 1  IDiag  1:
 E= -54.5909532436020     Delta-E=       -0.000000000011 Rises=F Damp=F
 DIIS: error= 1.99D-07 at cycle   4 NSaved=   4.
 NSaved= 4 IEnMin= 4 EnMin= -54.5909532436020     IErMin= 4 ErrMin= 1.99D-07
 ErrMax= 1.99D-07  0.00D+00 EMaxC= 1.00D-01 BMatC= 2.11D-12 BMatP= 4.18D-11
 IDIUse=1 WtCom= 1.00D+00 WtEn= 0.00D+00
 Coeff-Com:  0.757D-04-0.957D-03-0.102D+00 0.110D+01
 Coeff:      0.757D-04-0.957D-03-0.102D+00 0.110D+01
 Gap=     0.691 Goal=   None    Shift=    0.000
 Gap=     0.629 Goal=   None    Shift=    0.000
 RMSDP=1.59D-08 MaxDP=4.53D-07 DE=-1.15D-11 OVMax= 4.61D-07

 Cycle  10  Pass 1  IDiag  1:
 E= -54.5909532436027     Delta-E=       -0.000000000001 Rises=F Damp=F
 DIIS: error= 1.35D-07 at cycle   5 NSaved=   5.
 NSaved= 5 IEnMin= 5 EnMin= -54.5909532436027     IErMin= 5 ErrMin= 1.35D-07
 ErrMax= 1.35D-07  0.00D+00 EMaxC= 1.00D-01 BMatC= 3.89D-13 BMatP= 2.11D-12
 IDIUse=1 WtCom= 1.00D+00 WtEn= 0.00D+00
 Coeff-Com: -0.618D-05 0.208D-02-0.102D+00 0.305D+00 0.795D+00
 Coeff:     -0.618D-05 0.208D-02-0.102D+00 0.305D+00 0.795D+00
 Gap=     0.691 Goal=   None    Shift=    0.000
 Gap=     0.629 Goal=   None    Shift=    0.000
 RMSDP=4.55D-09 MaxDP=1.52D-07 DE=-7.25D-13 OVMax= 1.85D-07

 SCF Done:  E(UM062X) =  -54.5909532436     A.U. after   10 cycles
            NFock= 10  Conv=0.46D-08     -V/T= 2.0023
 <Sx>= 0.0000 <Sy>= 0.0000 <Sz>= 1.5000 <S**2>= 3.7536 S= 1.5009
 <L.S>= 0.000000000000E+00
 KE= 5.446701883608D+01 PE=-1.284092767372D+02 EE= 1.935130465755D+01
 Annihilation of the first spin contaminant:
 S**2 before annihilation     3.7536,   after     3.7500
 Leave Link  502 at Sun Apr 18 07:25:48 2021, MaxMem=   104857600 cpu:           12281.1 elap:             261.4
 (Enter /s/ls4/users/knvvv/bin/g16sse/l601.exe)
 Copying SCF densities to generalized density rwf, IOpCl= 1 IROHF=0.

 **********************************************************************

            Population analysis using the SCF density.

 **********************************************************************

 Orbital symmetries:
 Alpha Orbitals:
       Occupied  (A1G) (A1G) (T1U) (T1U) (T1U)
       Virtual   (T1U) (T1U) (T1U) (A1G) (T2G) (T2G) (T2G) (EG)
                 (EG) (T1U) (T1U) (T1U) (A1G) (?A) (?A) (?A) (?A)
                 (T1U) (T1U) (T1U) (T2G) (T2G) (T2G) (EG) (EG)
                 (T1U) (T1U) (T1U) (T2G) (T2G) (T2G) (EG) (EG)
                 (T1G) (T1G) (T1G) (A1G) (A2U) (T2U) (T2U) (T2U)
                 (T1U) (T1U) (T1U) (T2G) (T2G) (T2G) (EG) (EG)
                 (A1G) (A1G) (A1G)
 Beta  Orbitals:
       Occupied  (A1G) (A1G)
       Virtual   (T1U) (T1U) (T1U) (T1U) (T1U) (T1U) (A1G) (T2G)
                 (T2G) (T2G) (EG) (EG) (T1U) (T1U) (T1U) (A1G)
                 (A2U) (T2U) (T2U) (T2U) (T1U) (T1U) (T1U) (T2G)
                 (T2G) (T2G) (EG) (EG) (T1U) (T1U) (T1U) (T2G)
                 (T2G) (T2G) (T1G) (T1G) (T1G) (EG) (EG) (A1G)
                 (?A) (?A) (?A) (?A) (T1U) (T1U) (T1U) (T2G) (T2G)
                 (T2G) (EG) (EG) (A1G) (A1G) (A1G)
 The electronic state is 4-A1G.
 Alpha  occ. eigenvalues --  -14.85306  -0.91746  -0.43228  -0.43228  -0.43228
 Alpha virt. eigenvalues --    0.25883   0.25883   0.25883   0.32845   0.76538
 Alpha virt. eigenvalues --    0.76538   0.76538   0.76538   0.76538   1.10212
 Alpha virt. eigenvalues --    1.10212   1.10212   2.05815   2.41903   2.41903
 Alpha virt. eigenvalues --    2.41903   2.41903   2.41903   2.41903   2.41903
 Alpha virt. eigenvalues --    2.75419   2.75419   2.75419   2.75419   2.75419
 Alpha virt. eigenvalues --    3.97183   3.97183   3.97183   6.65742   6.65742
 Alpha virt. eigenvalues --    6.65742   6.65742   6.65742   6.65742   6.65742
 Alpha virt. eigenvalues --    6.65742   6.65742   8.14599   8.14599   8.14599
 Alpha virt. eigenvalues --    8.14599   8.14599   8.14599   8.14599   8.71146
 Alpha virt. eigenvalues --    8.71146   8.71146   8.71146   8.71146   9.15321
 Alpha virt. eigenvalues --   35.94722 193.35466
  Beta  occ. eigenvalues --  -14.81064  -0.68854
  Beta virt. eigenvalues --   -0.05916  -0.05916  -0.05916   0.24397   0.24397
  Beta virt. eigenvalues --    0.24397   0.26349   0.75113   0.75113   0.75113
  Beta virt. eigenvalues --    0.75113   0.75113   1.13580   1.13580   1.13580
  Beta virt. eigenvalues --    2.11244   2.38283   2.38283   2.38283   2.38283
  Beta virt. eigenvalues --    2.38283   2.38283   2.38283   2.76771   2.76771
  Beta virt. eigenvalues --    2.76771   2.76771   2.76771   3.99894   3.99894
  Beta virt. eigenvalues --    3.99894   6.61523   6.61523   6.61523   6.61523
  Beta virt. eigenvalues --    6.61523   6.61523   6.61523   6.61523   6.61523
  Beta virt. eigenvalues --    8.35757   8.35757   8.35757   8.35757   8.35757
  Beta virt. eigenvalues --    8.35757   8.35757   8.93935   8.93935   8.93935
  Beta virt. eigenvalues --    8.93935   8.93935   9.39180  36.16684 193.34316
          Condensed to atoms (all electrons):
               1
     1  N    7.000000
          Atomic-Atomic Spin Densities.
               1
     1  N    3.000000
 Mulliken charges and spin densities:
               1          2
     1  N   -0.000000   3.000000
 Sum of Mulliken charges =  -0.00000   3.00000
 Mulliken charges and spin densities with hydrogens summed into heavy atoms:
               1          2
     1  N   -0.000000   3.000000
 Electronic spatial extent (au):  <R**2>=             12.2791
 Charge=             -0.0000 electrons
 Dipole moment (field-independent basis, Debye):
    X=              0.0000    Y=              0.0000    Z=             -0.0000  Tot=              0.0000
 Quadrupole moment (field-independent basis, Debye-Ang):
   XX=             -5.5053   YY=             -5.5053   ZZ=             -5.5053
   XY=             -0.0000   XZ=              0.0000   YZ=             -0.0000
 Traceless Quadrupole moment (field-independent basis, Debye-Ang):
   XX=              0.0000   YY=             -0.0000   ZZ=             -0.0000
   XY=             -0.0000   XZ=              0.0000   YZ=             -0.0000
 Octapole moment (field-independent basis, Debye-Ang**2):
  XXX=              0.0000  YYY=              0.0000  ZZZ=             -0.0000  XYY=             -0.0000
  XXY=              0.0000  XXZ=              0.0000  XZZ=             -0.0000  YZZ=              0.0000
  YYZ=             -0.0000  XYZ=             -0.0000
 Hexadecapole moment (field-independent basis, Debye-Ang**3):
 XXXX=             -5.0364 YYYY=             -5.0364 ZZZZ=             -5.0364 XXXY=              0.0000
 XXXZ=             -0.0000 YYYX=             -0.0000 YYYZ=              0.0000 ZZZX=              0.0000
 ZZZY=             -0.0000 XXYY=             -1.6788 XXZZ=             -1.6788 YYZZ=             -1.6788
 XXYZ=             -0.0000 YYXZ=              0.0000 ZZXY=             -0.0000
 N-N= 0.000000000000D+00 E-N=-1.284092757402D+02  KE= 5.446701883608D+01
                          Isotropic Fermi Contact Couplings
        Atom                 a.u.       MegaHertz       Gauss      10(-4) cm-1
     1  N(14)              0.31116      33.51274      11.95818      11.17865
 PrsmSu:  requested number of processors reduced to:  21 ShMem   1 Linda.
 --------------------------------------------------------
       Center         ----  Spin Dipole Couplings  ----
                      3XX-RR        3YY-RR        3ZZ-RR
 --------------------------------------------------------
     1   Atom        0.000000     -0.000000      0.000000
 --------------------------------------------------------
                        XY            XZ            YZ
 --------------------------------------------------------
     1   Atom        0.000000      0.000000      0.000000
 --------------------------------------------------------


 ---------------------------------------------------------------------------------
              Anisotropic Spin Dipole Couplings in Principal Axis System
 ---------------------------------------------------------------------------------

       Atom             a.u.   MegaHertz   Gauss  10(-4) cm-1        Axes

              Baa    -0.0000    -0.000    -0.000    -0.000 -0.0000  1.0000  0.0000
     1 N(14)  Bbb     0.0000     0.000     0.000     0.000  1.0000  0.0000  0.0000
              Bcc     0.0000     0.000     0.000     0.000  0.0000  0.0000  1.0000
 

 ---------------------------------------------------------------------------------

 PrsmSu:  requested number of processors reduced to:  21 ShMem   1 Linda.
 No NMR shielding tensors so no spin-rotation constants.
 Leave Link  601 at Sun Apr 18 07:25:57 2021, MaxMem=   104857600 cpu:             416.2 elap:               9.0
 (Enter /s/ls4/users/knvvv/bin/g16sse/l801.exe)
 DoSCS=F DFT=T ScalE2(SS,OS)=  1.000000  1.000000
 Range of M.O.s used for correlation:     1    57
 NBasis=    57 NAE=     5 NBE=     2 NFC=     0 NFV=     0
 NROrb=     57 NOA=     5 NOB=     2 NVA=    52 NVB=    55
 Leave Link  801 at Sun Apr 18 07:25:57 2021, MaxMem=   104857600 cpu:               4.6 elap:               0.1
 (Enter /s/ls4/users/knvvv/bin/g16sse/l914.exe)
 UHF ground state
 Doing stability rather than CIS.
 Keep R1 and R2 ints in memory in symmetry-blocked form, NReq=72103365.
 FoFCou: FMM=F IPFlag=           0 FMFlag=           0 FMFlg1=           0
         NFxFlg=           0 DoJE=F BraDBF=F KetDBF=F FulRan=T
         wScrn=  0.000000 ICntrl=       600 IOpCl=  0 I1Cent=           0 NGrid=           0
         NMat0=    1 NMatS0=   1653 NMatT0=    0 NMatD0=    1 NMtDS0=    0 NMtDT0=    0
 Petite list used in FoFCou.
 CoulSu:  requested number of processors reduced to:  22 ShMem   1 Linda.
 MDV=   104857600 DFT=T DoStab=T Mixed=T DoRPA=F DoScal=F NonHer=F
 Making orbital integer symmetry assigments:
 Orbital symmetries:
 Alpha Orbitals:
       Occupied  (A1G) (A1G) (T1U) (T1U) (T1U)
       Virtual   (T1U) (T1U) (T1U) (A1G) (T2G) (T2G) (T2G) (EG)
                 (EG) (T1U) (T1U) (T1U) (A1G) (?A) (?A) (?A) (?A)
                 (T1U) (T1U) (T1U) (T2G) (T2G) (T2G) (EG) (EG)
                 (T1U) (T1U) (T1U) (T2G) (T2G) (T2G) (EG) (EG)
                 (T1G) (T1G) (T1G) (A1G) (A2U) (T2U) (T2U) (T2U)
                 (T1U) (T1U) (T1U) (T2G) (T2G) (T2G) (EG) (EG)
                 (A1G) (A1G) (A1G)
 Beta  Orbitals:
       Occupied  (A1G) (A1G)
       Virtual   (T1U) (T1U) (T1U) (T1U) (T1U) (T1U) (A1G) (T2G)
                 (T2G) (T2G) (EG) (EG) (T1U) (T1U) (T1U) (A1G)
                 (A2U) (T2U) (T2U) (T2U) (T1U) (T1U) (T1U) (T2G)
                 (T2G) (T2G) (EG) (EG) (T1U) (T1U) (T1U) (T2G)
                 (T2G) (T2G) (T1G) (T1G) (T1G) (EG) (EG) (A1G)
                 (?A) (?A) (?A) (?A) (T1U) (T1U) (T1U) (T2G) (T2G)
                 (T2G) (EG) (EG) (A1G) (A1G) (A1G)
    24 initial guesses have been made.
 Convergence on wavefunction:    0.001000000000000
 Davidson Disk Diagonalization:  ConvIn= 1.00D-03 SkipCon=T Conv= 1.00D-03.
 Max sub-space:   740 roots to seek:    24 dimension of matrix:          370
 Iteration     1 Dimension    24 NMult     0 NNew     24
 CISAX will form    24 AO SS matrices at one time.
 NMat=    24 NSing=    24 JSym2X= 2.
 New state      1 was old state      3
 Excitation Energies [eV] at current iteration:
 Root      1 :    12.472153241926660
 Root      2 :    12.885414194107250
 Root      3 :    12.905760590110550
 Root      4 :    13.517998401675110
 Root      5 :    13.517998401675630
 Root      6 :    13.517998401675960
 Root      7 :    13.517998401776830
 Root      8 :    13.517998401777050
 Root      9 :    14.904739609998510
 Root     10 :    14.904739609998640
 Root     11 :    14.904739609998740
 Root     12 :    15.159278549053450
 Root     13 :    15.298924804127580
 Root     14 :    15.307678395113090
 Root     15 :    17.431284352994820
 Root     16 :    21.072486105566760
 Root     17 :    21.243443598353120
 Root     18 :    21.254803729461300
 Root     19 :    26.498843452492540
 Root     20 :    26.961818160173030
 Root     21 :    27.156829279030030
 Root     22 :    27.858201009402370
 Root     23 :    27.893795149734080
 Root     24 :    28.960814172588480
 Iteration     2 Dimension    48 NMult    24 NNew     24
 CISAX will form    24 AO SS matrices at one time.
 NMat=    24 NSing=    24 JSym2X= 2.
 Root      1 not converged, maximum delta is    0.111603589442134
 Excitation Energies [eV] at current iteration:
 Root      1 :    10.983619775547910   Change is   -1.488533466378756
 Root      2 :    10.985737331173460   Change is   -1.899676862933786
 Root      3 :    10.985861287206110   Change is   -1.919899302904433
 Root      4 :    13.214443276740180   Change is   -0.303555124934929
 Root      5 :    13.214443276740680   Change is   -0.303555124934946
 Root      6 :    13.214443276741040   Change is   -0.303555124934919
 Root      7 :    13.214443276842050   Change is   -0.303555124934784
 Root      8 :    13.214443276842320   Change is   -0.303555124934735
 Root      9 :    14.863043762781360   Change is   -0.041695847217145
 Root     10 :    14.863043762781410   Change is   -0.041695847217239
 Root     11 :    14.863043762781440   Change is   -0.041695847217293
 Root     12 :    14.927361728922850   Change is   -0.231916820130602
 Root     13 :    14.927666175121710   Change is   -0.371258629005877
 Root     14 :    14.927686844915390   Change is   -0.379991550197693
 Root     15 :    16.861552130829570   Change is   -0.569732222165256
 Root     16 :    20.794151939716410   Change is   -0.278334165850356
 Root     17 :    20.795142767005120   Change is   -0.448300831348004
 Root     18 :    20.795201200826330   Change is   -0.459602528634970
 Root     19 :    24.271555481498920   Change is   -2.885273797531108
 Root     20 :    25.829302643442430   Change is   -3.131511529146052
 Root     21 :    26.115288585055900   Change is   -0.383554867436639
 Root     22 :    27.133590297863270   Change is    0.171772137690239
 Root     23 :    27.139858130357540   Change is   -0.753937019376543
 Root     24 :    27.141063567031560   Change is   -0.717137442370814
 Iteration     3 Dimension    51 NMult    48 NNew      3
 CISAX will form     3 AO SS matrices at one time.
 NMat=     3 NSing=     3 JSym2X= 2.
 New state      1 was old state      2
 Root      1 not converged, maximum delta is    0.004503891057274
 Excitation Energies [eV] at current iteration:
 Root      1 :    10.978546037756580   Change is   -0.007191293416881
 Root      2 :    10.978546043914680   Change is   -0.007315243291439
 Root      3 :    10.978547022170670   Change is   -0.005072753377233
 Iteration     4 Dimension    54 NMult    51 NNew      3
 CISAX will form     3 AO SS matrices at one time.
 NMat=     3 NSing=     3 JSym2X= 2.
 New state      1 was old state      2
 Root      1 has converged.
 Excitation Energies [eV] at current iteration:
 Root      1 :    10.978541968018760   Change is   -0.000004075895915
 Root      2 :    10.978541968739670   Change is   -0.000004069016912
 Root      3 :    10.978542008624960   Change is   -0.000005013545717
 Convergence achieved on expansion vectors.
 ***********************************************************************
 Stability analysis using <AA,BB:AA,BB> singles matrix:
 ***********************************************************************
 1PDM for each excited state written to RWF  633
 Ground to excited state transition densities written to RWF  633

 Eigenvectors of the stability matrix:
 
 Eigenvector   1:  4.001-T1U  Eigenvalue= 0.4034540  <S**2>=3.751
      3A -> 12A        0.12541
      5A ->  9A       -0.17176
      5A -> 11A       -0.10355
      5A -> 13A        0.10298
      2B ->  3B        0.82374
      2B ->  4B       -0.37976
      2B ->  5B       -0.10090
      2B ->  6B        0.20183
      2B ->  7B       -0.11889
 The wavefunction is stable under the perturbations considered.
 Leave Link  914 at Sun Apr 18 07:26:13 2021, MaxMem=   104857600 cpu:             699.5 elap:              15.2
 (Enter /s/ls4/users/knvvv/bin/g16sse/l508.exe)
 The wavefunction is already stable.
 Leave Link  508 at Sun Apr 18 07:26:13 2021, MaxMem=   104857600 cpu:               2.2 elap:               0.1
 (Enter /s/ls4/users/knvvv/bin/g16sse/l601.exe)
 Copying SCF densities to generalized density rwf, IOpCl= 1 IROHF=0.

 **********************************************************************

            Population analysis using the SCF density.

 **********************************************************************

 Orbital symmetries:
 Alpha Orbitals:
       Occupied  (A1G) (A1G) (T1U) (T1U) (T1U)
       Virtual   (T1U) (T1U) (T1U) (A1G) (T2G) (T2G) (T2G) (EG)
                 (EG) (T1U) (T1U) (T1U) (A1G) (?A) (?A) (?A) (?A)
                 (T1U) (T1U) (T1U) (T2G) (T2G) (T2G) (EG) (EG)
                 (T1U) (T1U) (T1U) (T2G) (T2G) (T2G) (EG) (EG)
                 (T1G) (T1G) (T1G) (A1G) (A2U) (T2U) (T2U) (T2U)
                 (T1U) (T1U) (T1U) (T2G) (T2G) (T2G) (EG) (EG)
                 (A1G) (A1G) (A1G)
 Beta  Orbitals:
       Occupied  (A1G) (A1G)
       Virtual   (T1U) (T1U) (T1U) (T1U) (T1U) (T1U) (A1G) (T2G)
                 (T2G) (T2G) (EG) (EG) (T1U) (T1U) (T1U) (A1G)
                 (A2U) (T2U) (T2U) (T2U) (T1U) (T1U) (T1U) (T2G)
                 (T2G) (T2G) (EG) (EG) (T1U) (T1U) (T1U) (T2G)
                 (T2G) (T2G) (T1G) (T1G) (T1G) (EG) (EG) (A1G)
                 (?A) (?A) (?A) (?A) (T1U) (T1U) (T1U) (T2G) (T2G)
                 (T2G) (EG) (EG) (A1G) (A1G) (A1G)
 The electronic state is 4-A1G.
 Alpha  occ. eigenvalues --  -14.85306  -0.91746  -0.43228  -0.43228  -0.43228
 Alpha virt. eigenvalues --    0.25883   0.25883   0.25883   0.32845   0.76538
 Alpha virt. eigenvalues --    0.76538   0.76538   0.76538   0.76538   1.10212
 Alpha virt. eigenvalues --    1.10212   1.10212   2.05815   2.41903   2.41903
 Alpha virt. eigenvalues --    2.41903   2.41903   2.41903   2.41903   2.41903
 Alpha virt. eigenvalues --    2.75419   2.75419   2.75419   2.75419   2.75419
 Alpha virt. eigenvalues --    3.97183   3.97183   3.97183   6.65742   6.65742
 Alpha virt. eigenvalues --    6.65742   6.65742   6.65742   6.65742   6.65742
 Alpha virt. eigenvalues --    6.65742   6.65742   8.14599   8.14599   8.14599
 Alpha virt. eigenvalues --    8.14599   8.14599   8.14599   8.14599   8.71146
 Alpha virt. eigenvalues --    8.71146   8.71146   8.71146   8.71146   9.15321
 Alpha virt. eigenvalues --   35.94722 193.35466
  Beta  occ. eigenvalues --  -14.81064  -0.68854
  Beta virt. eigenvalues --   -0.05916  -0.05916  -0.05916   0.24397   0.24397
  Beta virt. eigenvalues --    0.24397   0.26349   0.75113   0.75113   0.75113
  Beta virt. eigenvalues --    0.75113   0.75113   1.13580   1.13580   1.13580
  Beta virt. eigenvalues --    2.11244   2.38283   2.38283   2.38283   2.38283
  Beta virt. eigenvalues --    2.38283   2.38283   2.38283   2.76771   2.76771
  Beta virt. eigenvalues --    2.76771   2.76771   2.76771   3.99894   3.99894
  Beta virt. eigenvalues --    3.99894   6.61523   6.61523   6.61523   6.61523
  Beta virt. eigenvalues --    6.61523   6.61523   6.61523   6.61523   6.61523
  Beta virt. eigenvalues --    8.35757   8.35757   8.35757   8.35757   8.35757
  Beta virt. eigenvalues --    8.35757   8.35757   8.93935   8.93935   8.93935
  Beta virt. eigenvalues --    8.93935   8.93935   9.39180  36.16684 193.34316
          Condensed to atoms (all electrons):
               1
     1  N    7.000000
          Atomic-Atomic Spin Densities.
               1
     1  N    3.000000
 Mulliken charges and spin densities:
               1          2
     1  N   -0.000000   3.000000
 Sum of Mulliken charges =  -0.00000   3.00000
 Mulliken charges and spin densities with hydrogens summed into heavy atoms:
               1          2
     1  N   -0.000000   3.000000
 Electronic spatial extent (au):  <R**2>=             12.2791
 Charge=             -0.0000 electrons
 Dipole moment (field-independent basis, Debye):
    X=              0.0000    Y=              0.0000    Z=             -0.0000  Tot=              0.0000
 Quadrupole moment (field-independent basis, Debye-Ang):
   XX=             -5.5053   YY=             -5.5053   ZZ=             -5.5053
   XY=             -0.0000   XZ=              0.0000   YZ=             -0.0000
 Traceless Quadrupole moment (field-independent basis, Debye-Ang):
   XX=              0.0000   YY=             -0.0000   ZZ=             -0.0000
   XY=             -0.0000   XZ=              0.0000   YZ=             -0.0000
 Octapole moment (field-independent basis, Debye-Ang**2):
  XXX=              0.0000  YYY=              0.0000  ZZZ=             -0.0000  XYY=             -0.0000
  XXY=              0.0000  XXZ=              0.0000  XZZ=             -0.0000  YZZ=              0.0000
  YYZ=             -0.0000  XYZ=             -0.0000
 Hexadecapole moment (field-independent basis, Debye-Ang**3):
 XXXX=             -5.0364 YYYY=             -5.0364 ZZZZ=             -5.0364 XXXY=              0.0000
 XXXZ=             -0.0000 YYYX=             -0.0000 YYYZ=              0.0000 ZZZX=              0.0000
 ZZZY=             -0.0000 XXYY=             -1.6788 XXZZ=             -1.6788 YYZZ=             -1.6788
 XXYZ=             -0.0000 YYXZ=              0.0000 ZZXY=             -0.0000
 N-N= 0.000000000000D+00 E-N=-1.284092757402D+02  KE= 5.446701883608D+01
                          Isotropic Fermi Contact Couplings
        Atom                 a.u.       MegaHertz       Gauss      10(-4) cm-1
     1  N(14)              0.31116      33.51274      11.95818      11.17865
 PrsmSu:  requested number of processors reduced to:  21 ShMem   1 Linda.
 --------------------------------------------------------
       Center         ----  Spin Dipole Couplings  ----
                      3XX-RR        3YY-RR        3ZZ-RR
 --------------------------------------------------------
     1   Atom        0.000000     -0.000000      0.000000
 --------------------------------------------------------
                        XY            XZ            YZ
 --------------------------------------------------------
     1   Atom        0.000000      0.000000      0.000000
 --------------------------------------------------------


 ---------------------------------------------------------------------------------
              Anisotropic Spin Dipole Couplings in Principal Axis System
 ---------------------------------------------------------------------------------

       Atom             a.u.   MegaHertz   Gauss  10(-4) cm-1        Axes

              Baa    -0.0000    -0.000    -0.000    -0.000 -0.0000  1.0000  0.0000
     1 N(14)  Bbb     0.0000     0.000     0.000     0.000  1.0000  0.0000  0.0000
              Bcc     0.0000     0.000     0.000     0.000  0.0000  0.0000  1.0000
 

 ---------------------------------------------------------------------------------

 PrsmSu:  requested number of processors reduced to:  21 ShMem   1 Linda.
 No NMR shielding tensors so no spin-rotation constants.
 Leave Link  601 at Sun Apr 18 07:26:22 2021, MaxMem=   104857600 cpu:             433.3 elap:               9.5
 (Enter /s/ls4/users/knvvv/bin/g16sse/l9999.exe)

 Test job not archived.
 1\1\GINC-N178\Stability\UM062X\def2QZVP\N1(4)\KNVVV\18-Apr-2021\0\\#P 
 M062X/Def2QZVP Integral=UltraFineGrid SCF=NoSymm Stable=(RExt, Opt) IO
 p(1/33=1)\\Database calculations.\\0,4\N,0,0.,0.,0.\\Version=ES64L-G16
 RevA.03\State=4-A1G\HF=-54.5909532\S2=3.753631\S2-1=0.\S2A=3.75\RMSD=4
 .551e-09\Dipole=0.,0.,0.\Quadrupole=0.,0.,0.,0.,0.,0.\PG=OH [O(N1)]\\@


 MY DESCRIPTION OF EXPERIENCE IS NOT WHAT HAPPENS
 TO A MAN.  EXPERIENCE IS WHAT A MAN DOES WITH WHAT
 HAPPENS TO HIM.
                         - CHUCK KNOX, SEATTLE SEAHAWKS, 1985
 Job cpu time:       0 days  4 hours 13 minutes 37.6 seconds.
 Elapsed time:       0 days  0 hours  5 minutes 25.0 seconds.
 File lengths (MBytes):  RWF=     11 Int=      0 D2E=      0 Chk=      2 Scr=      1
 Normal termination of Gaussian 16 at Sun Apr 18 07:26:22 2021.
