 Entering Gaussian System, Link 0=/s/ls4/users/knvvv/bin/g16sse/g16
 Input=data/database/M062X--def2-QZVP--MB16-43_05.gjf
 Output=data/database/M062X--def2-QZVP--MB16-43_05.log
 Initial command:
 /s/ls4/users/knvvv/bin/g16sse/l1.exe "/s/ls4/users/knvvv/bin/scratch/Gau-22666.inp" -scrdir="/s/ls4/users/knvvv/bin/scratch/"
 Entering Link 1 = /s/ls4/users/knvvv/bin/g16sse/l1.exe PID=     22667.
  
 Copyright (c) 1988,1990,1992,1993,1995,1998,2003,2009,2016,
            Gaussian, Inc.  All Rights Reserved.
  
 This is part of the Gaussian(R) 16 program.  It is based on
 the Gaussian(R) 09 system (copyright 2009, Gaussian, Inc.),
 the Gaussian(R) 03 system (copyright 2003, Gaussian, Inc.),
 the Gaussian(R) 98 system (copyright 1998, Gaussian, Inc.),
 the Gaussian(R) 94 system (copyright 1995, Gaussian, Inc.),
 the Gaussian 92(TM) system (copyright 1992, Gaussian, Inc.),
 the Gaussian 90(TM) system (copyright 1990, Gaussian, Inc.),
 the Gaussian 88(TM) system (copyright 1988, Gaussian, Inc.),
 the Gaussian 86(TM) system (copyright 1986, Carnegie Mellon
 University), and the Gaussian 82(TM) system (copyright 1983,
 Carnegie Mellon University). Gaussian is a federally registered
 trademark of Gaussian, Inc.
  
 This software contains proprietary and confidential information,
 including trade secrets, belonging to Gaussian, Inc.
  
 This software is provided under written license and may be
 used, copied, transmitted, or stored only in accord with that
 written license.
  
 The following legend is applicable only to US Government
 contracts under FAR:
  
                    RESTRICTED RIGHTS LEGEND
  
 Use, reproduction and disclosure by the US Government is
 subject to restrictions as set forth in subparagraphs (a)
 and (c) of the Commercial Computer Software - Restricted
 Rights clause in FAR 52.227-19.
  
 Gaussian, Inc.
 340 Quinnipiac St., Bldg. 40, Wallingford CT 06492
  
  
 ---------------------------------------------------------------
 Warning -- This program may not be used in any manner that
 competes with the business of Gaussian, Inc. or will provide
 assistance to any competitor of Gaussian, Inc.  The licensee
 of this program is prohibited from giving any competitor of
 Gaussian, Inc. access to this program.  By using this program,
 the user acknowledges that Gaussian, Inc. is engaged in the
 business of creating and licensing software in the field of
 computational chemistry and represents and warrants to the
 licensee that it is not a competitor of Gaussian, Inc. and that
 it will not use this program in any manner prohibited above.
 ---------------------------------------------------------------
  

 Cite this work as:
 Gaussian 16, Revision A.03,
 M. J. Frisch, G. W. Trucks, H. B. Schlegel, G. E. Scuseria, 
 M. A. Robb, J. R. Cheeseman, G. Scalmani, V. Barone, 
 G. A. Petersson, H. Nakatsuji, X. Li, M. Caricato, A. V. Marenich, 
 J. Bloino, B. G. Janesko, R. Gomperts, B. Mennucci, H. P. Hratchian, 
 J. V. Ortiz, A. F. Izmaylov, J. L. Sonnenberg, D. Williams-Young, 
 F. Ding, F. Lipparini, F. Egidi, J. Goings, B. Peng, A. Petrone, 
 T. Henderson, D. Ranasinghe, V. G. Zakrzewski, J. Gao, N. Rega, 
 G. Zheng, W. Liang, M. Hada, M. Ehara, K. Toyota, R. Fukuda, 
 J. Hasegawa, M. Ishida, T. Nakajima, Y. Honda, O. Kitao, H. Nakai, 
 T. Vreven, K. Throssell, J. A. Montgomery, Jr., J. E. Peralta, 
 F. Ogliaro, M. J. Bearpark, J. J. Heyd, E. N. Brothers, K. N. Kudin, 
 V. N. Staroverov, T. A. Keith, R. Kobayashi, J. Normand, 
 K. Raghavachari, A. P. Rendell, J. C. Burant, S. S. Iyengar, 
 J. Tomasi, M. Cossi, J. M. Millam, M. Klene, C. Adamo, R. Cammi, 
 J. W. Ochterski, R. L. Martin, K. Morokuma, O. Farkas, 
 J. B. Foresman, and D. J. Fox, Gaussian, Inc., Wallingford CT, 2016.
 
 ******************************************
 Gaussian 16:  ES64L-G16RevA.03 25-Dec-2016
                17-Apr-2021 
 ******************************************
 %RWF=temp0_83377,70GB
 %nprocshared=48
 Will use up to   48 processors via shared memory.
 Default route: MaxDisk=80GB
 ----------------------------------------------------------------------
 #P M062X/Def2QZVP Integral=UltraFineGrid SCF=NoSymm Stable=(RExt, Opt)
  IOp(1/33=1)
 ----------------------------------------------------------------------
 1/33=1,38=1,172=1/1;
 2/12=2,17=6,18=5,40=1/2;
 3/5=45,7=101,11=2,25=1,30=1,74=-55,75=-5/1,2,3;
 4/9=2/1;
 5/5=2,38=5/2;
 6/7=2,8=2,9=2,10=2,28=1/1;
 8/6=1,10=90,11=11/1;
 9/8=-3,42=1,46=1/14;
 5/5=2,8=3,17=40,38=5/8(-2);
 6/7=2,8=2,9=2,10=2,28=1/1;
 99/5=1,9=1/99;
 Leave Link    1 at Sat Apr 17 01:24:23 2021, MaxMem=           0 cpu:              10.3 elap:               0.2
 (Enter /s/ls4/users/knvvv/bin/g16sse/l101.exe)
 ONIOM data not found on unit 2.
 ----------------------
 Database calculations.
 ----------------------
 TstMul:  ICh=     0
 TstMul:  Mul=     2
 TstMul:  ICh=     0
 TstMul:  Mul=     2
 Symbolic Z-matrix:
 Charge =  0 Multiplicity = 2
 B                     0.36191   0.11472  -1.48932 
 P                    -1.41396  -2.10477   0.01851 
 H                     1.07066  -0.08492  -0.22215 
 H                     2.25548   1.93353  -1.49142 
 B                    -1.4837    0.9779    0.07994 
 P                     0.83778   1.99542  -1.51466 
 H                     1.39528   1.65708   1.1861 
 Cl                   -3.31854  -2.07687   0.86024 
 N                    -0.48999  -1.55817   1.37912 
 H                    -0.95004  -0.82997   1.93423 
 P                    -1.59526  -0.25267  -1.29561 
 Si                    1.15493  -1.18274   0.94048 
 H                     1.72548  -2.40288   0.30271 
 H                     0.91942  -0.62789  -2.24405 
 P                     0.49957   2.64338   0.62708 
 N                    -0.96902   1.79885   0.92879 
 
 RdStrC is calling ZToCFu for IStruc=1 NZ=    16.
 PrtBox:  NBox=     4 Levels=  2 BoxLen=    8.00 SMaxX=       10.53
          Shift=            6.271124            4.540781            4.240633
 Box      1 Number                   0 centers from      1 to      8:
 Box      2 Number                   2 centers from      9 to     10:
 Box      3 Number                   4 centers from     11 to     15:
 Box      4 Number                   6 centers from     16 to     16:
 After GenITR:
 ITRead=  0  0  0  0  0  0  0  0  0  0  0  0  0  0  0  0
 MicOpt= -1 -1 -1 -1 -1 -1 -1 -1 -1 -1 -1 -1 -1 -1 -1 -1
 ITRead=  0  0  0  0  0  0  0  0  0  0  0  0  0  0  0  0
 MicOpt= -1 -1 -1 -1 -1 -1 -1 -1 -1 -1 -1 -1 -1 -1 -1 -1
 NAtoms=     16 NQM=       16 NQMF=       0 NMMI=      0 NMMIF=      0
                NMic=       0 NMicF=      0.
                    Isotopes and Nuclear Properties:
 (Nuclear quadrupole moments (NQMom) in fm**2, nuclear magnetic moments (NMagM)
  in nuclear magnetons)

  Atom         1           2           3           4           5           6           7           8           9          10
 IAtWgt=          11          31           1           1          11          31           1          35          14           1
 AtmWgt=  11.0093053  30.9737634   1.0078250   1.0078250  11.0093053  30.9737634   1.0078250  34.9688527  14.0030740   1.0078250
 NucSpn=           3           1           1           1           3           1           1           3           2           1
 AtZEff=  -0.0000000  -0.0000000  -0.0000000  -0.0000000  -0.0000000  -0.0000000  -0.0000000  -0.0000000  -0.0000000  -0.0000000
 NQMom=    4.0590000   0.0000000   0.0000000   0.0000000   4.0590000   0.0000000   0.0000000  -8.1650000   2.0440000   0.0000000
 NMagM=    2.6886370   1.1316000   2.7928460   2.7928460   2.6886370   1.1316000   2.7928460   0.8218740   0.4037610   2.7928460
 AtZNuc=   5.0000000  15.0000000   1.0000000   1.0000000   5.0000000  15.0000000   1.0000000  17.0000000   7.0000000   1.0000000

  Atom        11          12          13          14          15          16
 IAtWgt=          31          28           1           1          31          14
 AtmWgt=  30.9737634  27.9769284   1.0078250   1.0078250  30.9737634  14.0030740
 NucSpn=           1           0           1           1           1           2
 AtZEff=  -0.0000000  -0.0000000  -0.0000000  -0.0000000  -0.0000000  -0.0000000
 NQMom=    0.0000000   0.0000000   0.0000000   0.0000000   0.0000000   2.0440000
 NMagM=    1.1316000   0.0000000   2.7928460   2.7928460   1.1316000   0.4037610
 AtZNuc=  15.0000000  14.0000000   1.0000000   1.0000000  15.0000000   7.0000000
 No MM parameters found.
 Leave Link  101 at Sat Apr 17 01:24:23 2021, MaxMem=   104857600 cpu:               9.2 elap:               0.2
 (Enter /s/ls4/users/knvvv/bin/g16sse/l202.exe)
                          Input orientation:                          
 ---------------------------------------------------------------------
 Center     Atomic      Atomic             Coordinates (Angstroms)
 Number     Number       Type             X           Y           Z
 ---------------------------------------------------------------------
      1          5           0        0.361914    0.114722   -1.489322
      2         15           0       -1.413959   -2.104770    0.018508
      3          1           0        1.070659   -0.084923   -0.222152
      4          1           0        2.255482    1.933533   -1.491416
      5          5           0       -1.483698    0.977901    0.079944
      6         15           0        0.837778    1.995420   -1.514664
      7          1           0        1.395282    1.657076    1.186097
      8         17           0       -3.318536   -2.076867    0.860244
      9          7           0       -0.489988   -1.558169    1.379123
     10          1           0       -0.950044   -0.829970    1.934225
     11         15           0       -1.595261   -0.252672   -1.295606
     12         14           0        1.154926   -1.182737    0.940481
     13          1           0        1.725478   -2.402878    0.302712
     14          1           0        0.919419   -0.627892   -2.244046
     15         15           0        0.499571    2.643376    0.627082
     16          7           0       -0.969024    1.798848    0.928790
 ---------------------------------------------------------------------
                    Distance matrix (angstroms):
                    1          2          3          4          5
     1  B    0.000000
     2  P    3.217673   0.000000
     3  H    1.465571   3.211078   0.000000
     4  H    2.625581   5.661497   2.662518   0.000000
     5  B    2.571762   3.084072   2.783091   4.166997   0.000000
     6  P    1.940132   4.922650   2.460213   1.419244   2.994557
     7  H    3.256466   4.838035   2.263428   2.825853   3.158065
     8  Cl   4.885615   2.082477   4.940086   7.258325   3.647890
     9  N    3.428159   1.733138   2.677714   5.288627   3.017776
    10  H    3.786074   2.347403   3.047671   5.444939   2.644153
    11  P    2.000759   2.278164   2.878814   4.432387   1.849026
    12  Si   2.866393   2.880858   1.601253   4.103229   3.517274
    13  H    3.377722   3.166339   2.465195   4.722739   4.666701
    14  H    1.196619   3.570010   2.098987   2.985367   3.708702
    15  P    3.300334   5.155273   2.913924   2.841677   2.646983
    16  N    3.233410   4.032966   3.005589   4.033977   1.288170
                    6          7          8          9         10
     6  P    0.000000
     7  H    2.778381   0.000000
     8  Cl   6.284795   6.022341   0.000000
     9  N    4.771263   3.732198   2.922151   0.000000
    10  H    4.803538   3.499379   2.884084   1.024726   0.000000
    11  P    3.319877   4.330050   3.308331   3.174920   3.343858
    12  Si   4.028524   2.860531   4.562649   1.743301   2.354330
    13  H    4.841063   4.168048   5.085194   2.603936   3.506322
    14  H    2.724046   4.148905   5.449441   3.997399   4.581886
    15  P    2.263030   1.444847   6.075607   4.381526   3.984237
    16  N    3.045265   2.382488   4.532778   3.420795   2.814595
                   11         12         13         14         15
    11  P    0.000000
    12  Si   3.664509   0.000000
    13  H    4.266768   1.490309   0.000000
    14  H    2.713658   3.241069   3.207224   0.000000
    15  P    4.058589   3.894464   5.203147   4.372738   0.000000
    16  N    3.090121   3.660758   5.030588   4.418390   1.720763
                   16
    16  N    0.000000
 Stoichiometry    B2ClH6N2P4Si(2)
 Framework group  C1[X(B2ClH6N2P4Si)]
 Deg. of freedom    42
 Full point group                 C1      NOp   1
 Largest Abelian subgroup         C1      NOp   1
 Largest concise Abelian subgroup C1      NOp   1
                         Standard orientation:                         
 ---------------------------------------------------------------------
 Center     Atomic      Atomic             Coordinates (Angstroms)
 Number     Number       Type             X           Y           Z
 ---------------------------------------------------------------------
      1          5           0       -1.014291    0.114230   -1.508108
      2         15           0        2.057112    0.356132   -0.579997
      3          1           0       -1.030612    1.237502   -0.566890
      4          1           0       -3.555221    0.715237   -1.232167
      5          5           0       -0.335120   -1.190969    0.601190
      6         15           0       -2.786217   -0.443310   -0.948163
      7          1           0       -2.337240    1.155266    1.279475
      8         17           0        3.296952   -0.852483    0.577049
      9          7           0        1.341704    1.317049    0.672439
     10          1           0        1.134832    0.799852    1.532541
     11         15           0        0.448522   -1.179738   -1.073526
     12         14           0        0.007944    2.270500    0.079892
     13          1           0        0.525333    3.086298   -1.054923
     14          1           0       -0.889780    0.642141   -2.574739
     15         15           0       -2.703990   -0.242037    1.304398
     16          7           0       -1.126141   -0.876065    1.567887
 ---------------------------------------------------------------------
 Rotational constants (GHZ):           0.9893566           0.3938417           0.3741888
 Leave Link  202 at Sat Apr 17 01:24:23 2021, MaxMem=   104857600 cpu:               6.0 elap:               0.2
 (Enter /s/ls4/users/knvvv/bin/g16sse/l301.exe)
 Standard basis: def2QZVP (5D, 7F)
 Ernie: Thresh=  0.10000D-02 Tol=  0.10000D-05 Strict=F.
 There are  1014 symmetry adapted cartesian basis functions of A   symmetry.
 There are   828 symmetry adapted basis functions of A   symmetry.
   828 basis functions,  1322 primitive gaussians,  1014 cartesian basis functions
    61 alpha electrons       60 beta electrons
       nuclear repulsion energy      1093.4397437792 Hartrees.
 IExCor= 4336 DFT=T Ex+Corr=M062X ExCW=0 ScaHFX=  0.540000
 ScaDFX=  1.000000  1.000000  1.000000  1.000000 ScalE2=  1.000000  1.000000
 IRadAn=      5 IRanWt=     -1 IRanGd=            0 ICorTp=0 IEmpDi=  4
 NAtoms=   16 NActive=   16 NUniq=   16 SFac= 1.00D+00 NAtFMM=   60 NAOKFM=F Big=F
 Integral buffers will be    131072 words long.
 Raffenetti 2 integral format.
 Two-electron integral symmetry is turned on.
 Leave Link  301 at Sat Apr 17 01:24:23 2021, MaxMem=   104857600 cpu:               6.6 elap:               0.2
 (Enter /s/ls4/users/knvvv/bin/g16sse/l302.exe)
 NPDir=0 NMtPBC=     1 NCelOv=     1 NCel=       1 NClECP=     1 NCelD=      1
         NCelK=      1 NCelE2=     1 NClLst=     1 CellRange=     0.0.
 One-electron integrals computed using PRISM.
 One-electron integral symmetry used in STVInt
 PrsmSu:  requested number of processors reduced to:   3 ShMem   1 Linda.
 PrsmSu:  requested number of processors reduced to:  17 ShMem   1 Linda.
   1 Symmetry operations used in ECPInt.
 ECPInt:  NShTT=   33930 NPrTT=   97674 LenC2=   30815 LenP2D=   65252.
 LDataN:  DoStor=T MaxTD1= 8 Len=  415
 Number of processors reduced to   9 by ecpmxn.
 NBasis=   828 RedAO= T EigKep=  3.15D-05  NBF=   828
 NBsUse=   828 1.00D-06 EigRej= -1.00D+00 NBFU=   828
 Precomputing XC quadrature grid using
 IXCGrd= 4 IRadAn=           5 IRanWt=          -1 IRanGd=           0 AccXCQ= 0.00D+00.
 Generated NRdTot=       0 NPtTot=           0 NUsed=           0 NTot=          32
 NSgBfM=  1002  1002  1002  1002  1002 MxSgAt=    16 MxSgA2=    16.
 Leave Link  302 at Sat Apr 17 01:24:44 2021, MaxMem=   104857600 cpu:             986.8 elap:              21.1
 (Enter /s/ls4/users/knvvv/bin/g16sse/l303.exe)
 DipDrv:  MaxL=1.
 Leave Link  303 at Sat Apr 17 01:24:56 2021, MaxMem=   104857600 cpu:             538.8 elap:              11.8
 (Enter /s/ls4/users/knvvv/bin/g16sse/l401.exe)
 SCF N**3 symmetry information disabled.
 ExpMin= 4.99D-02 ExpMax= 1.47D+06 ExpMxC= 1.67D+03 IAcc=3 IRadAn=         5 AccDes= 0.00D+00
 Harris functional with IExCor= 1009 and IRadAn=       5 diagonalized for initial guess.
 HarFok:  IExCor= 1009 AccDes= 0.00D+00 IRadAn=         5 IDoV= 1 UseB2=F ITyADJ=14
 ICtDFT=  3500011 ScaDFX=  1.000000  1.000000  1.000000  1.000000
 CalDSu:  requested number of processors reduced to:  43 ShMem   1 Linda.
 FoFCou: FMM=F IPFlag=           0 FMFlag=      100000 FMFlg1=           0
         NFxFlg=           0 DoJE=T BraDBF=F KetDBF=T FulRan=T
         wScrn=  0.000000 ICntrl=       500 IOpCl=  0 I1Cent=   200000004 NGrid=           0
         NMat0=    1 NMatS0=      1 NMatT0=    0 NMatD0=    1 NMtDS0=    0 NMtDT0=    0
 Petite list used in FoFCou.
 CoulSu:  requested number of processors reduced to:  15 ShMem   1 Linda.
 CoulSu:  requested number of processors reduced to:  16 ShMem   1 Linda.
 CoulSu:  requested number of processors reduced to:  21 ShMem   1 Linda.
 CoulSu:  requested number of processors reduced to:  21 ShMem   1 Linda.
 Harris En= -2276.90219044920    
 JPrj=0 DoOrth=F DoCkMO=F.
 Initial guess <Sx>= 0.0000 <Sy>= 0.0000 <Sz>= 0.5000 <S**2>= 0.7500 S= 0.5000
 Leave Link  401 at Sat Apr 17 01:25:10 2021, MaxMem=   104857600 cpu:             593.8 elap:              13.4
 (Enter /s/ls4/users/knvvv/bin/g16sse/l502.exe)
 Integral symmetry usage will be decided dynamically.
 UHF open shell SCF:
 Using DIIS extrapolation, IDIIS=  1040.
 NGot=   104857600 LenX=   102744728 LenY=   101715518
 Requested convergence on RMS density matrix=1.00D-08 within 128 cycles.
 Requested convergence on MAX density matrix=1.00D-06.
 Requested convergence on             energy=1.00D-06.
 No special actions if energy rises.
 Fock matrices will be formed incrementally for  20 cycles.

 Cycle   1  Pass 1  IDiag  1:
 FoFJK:  IHMeth= 1 ICntrl=       0 DoSepK=F KAlg= 0 I1Cent=           0 FoldK=F
 IRaf= 860000000 NMat=       1 IRICut=       1 DoRegI=T DoRafI=F ISym2E= 0 IDoP0=0 IntGTp=1.
 FoFCou: FMM=F IPFlag=           0 FMFlag=      100000 FMFlg1=           0
         NFxFlg=           0 DoJE=F BraDBF=F KetDBF=F FulRan=T
         wScrn=  0.000000 ICntrl=         0 IOpCl=  1 I1Cent=           0 NGrid=           0
         NMat0=    1 NMatS0=      1 NMatT0=    0 NMatD0=    1 NMtDS0=    0 NMtDT0=    0
 Symmetry not used in FoFCou.
 CoulSu:  requested number of processors reduced to:  15 ShMem   1 Linda.
 CalDSu:  requested number of processors reduced to:  33 ShMem   1 Linda.
 E= -2277.61725728351    
 DIIS: error= 1.56D-02 at cycle   1 NSaved=   1.
 NSaved= 1 IEnMin= 1 EnMin= -2277.61725728351     IErMin= 1 ErrMin= 1.56D-02
 ErrMax= 1.56D-02  0.00D+00 EMaxC= 1.00D-01 BMatC= 2.72D+00 BMatP= 2.72D+00
 IDIUse=3 WtCom= 8.44D-01 WtEn= 1.56D-01
 Coeff-Com:  0.100D+01
 Coeff-En:   0.100D+01
 Coeff:      0.100D+01
 Gap=     0.347 Goal=   None    Shift=    0.000
 Gap=     0.175 Goal=   None    Shift=    0.000
 GapD=    0.175 DampG=1.000 DampE=0.500 DampFc=0.5000 IDamp=-1.
 Damping current iteration by 5.00D-01
 RMSDP=1.55D-03 MaxDP=2.68D-01              OVMax= 8.25D-01

 Cycle   2  Pass 1  IDiag  1:
 RMSU=  7.74D-04    CP:  9.94D-01
 CoulSu:  requested number of processors reduced to:  15 ShMem   1 Linda.
 CalDSu:  requested number of processors reduced to:  34 ShMem   1 Linda.
 E= -2277.64790814252     Delta-E=       -0.030650859012 Rises=F Damp=T
 DIIS: error= 8.13D-03 at cycle   2 NSaved=   2.
 NSaved= 2 IEnMin= 2 EnMin= -2277.64790814252     IErMin= 2 ErrMin= 8.13D-03
 ErrMax= 8.13D-03  0.00D+00 EMaxC= 1.00D-01 BMatC= 5.17D-01 BMatP= 2.72D+00
 IDIUse=3 WtCom= 9.19D-01 WtEn= 8.13D-02
 Coeff-Com:  0.604D-01 0.940D+00
 Coeff-En:   0.456D+00 0.544D+00
 Coeff:      0.926D-01 0.907D+00
 Gap=     0.426 Goal=   None    Shift=    0.000
 Gap=    -0.106 Goal=   None    Shift=    0.000
 RMSDP=7.41D-04 MaxDP=1.28D-01 DE=-3.07D-02 OVMax= 4.51D-01

 Cycle   3  Pass 1  IDiag  1:
 RMSU=  6.64D-04    CP:  9.94D-01  5.76D-01
 CoulSu:  requested number of processors reduced to:  15 ShMem   1 Linda.
 CalDSu:  requested number of processors reduced to:  33 ShMem   1 Linda.
 E= -2277.84070617486     Delta-E=       -0.192798032340 Rises=F Damp=F
 DIIS: error= 9.74D-03 at cycle   3 NSaved=   3.
 NSaved= 3 IEnMin= 3 EnMin= -2277.84070617486     IErMin= 2 ErrMin= 8.13D-03
 ErrMax= 9.74D-03  0.00D+00 EMaxC= 1.00D-01 BMatC= 5.16D-01 BMatP= 5.17D-01
 IDIUse=3 WtCom= 9.03D-01 WtEn= 9.74D-02
 Coeff-Com: -0.148D+00 0.564D+00 0.584D+00
 Coeff-En:   0.000D+00 0.112D+00 0.888D+00
 Coeff:     -0.133D+00 0.520D+00 0.613D+00
 Gap=     0.258 Goal=   None    Shift=    0.000
 Gap=     0.131 Goal=   None    Shift=    0.000
 RMSDP=3.70D-04 MaxDP=4.07D-02 DE=-1.93D-01 OVMax= 1.19D-01

 Cycle   4  Pass 1  IDiag  1:
 RMSU=  3.22D-04    CP:  9.90D-01  7.58D-01  8.28D-01
 CoulSu:  requested number of processors reduced to:  15 ShMem   1 Linda.
 CalDSu:  requested number of processors reduced to:  33 ShMem   1 Linda.
 E= -2277.96393198877     Delta-E=       -0.123225813906 Rises=F Damp=F
 DIIS: error= 2.35D-03 at cycle   4 NSaved=   4.
 NSaved= 4 IEnMin= 4 EnMin= -2277.96393198877     IErMin= 4 ErrMin= 2.35D-03
 ErrMax= 2.35D-03  0.00D+00 EMaxC= 1.00D-01 BMatC= 6.28D-02 BMatP= 5.16D-01
 IDIUse=3 WtCom= 9.76D-01 WtEn= 2.35D-02
 Coeff-Com: -0.104D+00 0.238D+00 0.304D+00 0.562D+00
 Coeff-En:   0.000D+00 0.000D+00 0.000D+00 0.100D+01
 Coeff:     -0.102D+00 0.232D+00 0.297D+00 0.572D+00
 Gap=     0.245 Goal=   None    Shift=    0.000
 Gap=     0.133 Goal=   None    Shift=    0.000
 RMSDP=1.44D-04 MaxDP=1.65D-02 DE=-1.23D-01 OVMax= 3.68D-02

 Cycle   5  Pass 1  IDiag  1:
 RMSU=  1.31D-04    CP:  9.89D-01  8.11D-01  8.65D-01  8.83D-01
 CoulSu:  requested number of processors reduced to:  15 ShMem   1 Linda.
 CalDSu:  requested number of processors reduced to:  33 ShMem   1 Linda.
 E= -2277.97789644334     Delta-E=       -0.013964454569 Rises=F Damp=F
 DIIS: error= 1.07D-03 at cycle   5 NSaved=   5.
 NSaved= 5 IEnMin= 5 EnMin= -2277.97789644334     IErMin= 5 ErrMin= 1.07D-03
 ErrMax= 1.07D-03  0.00D+00 EMaxC= 1.00D-01 BMatC= 8.88D-03 BMatP= 6.28D-02
 IDIUse=3 WtCom= 9.89D-01 WtEn= 1.07D-02
 Coeff-Com: -0.345D-01 0.658D-01 0.318D-01 0.246D+00 0.691D+00
 Coeff-En:   0.000D+00 0.000D+00 0.000D+00 0.000D+00 0.100D+01
 Coeff:     -0.342D-01 0.651D-01 0.314D-01 0.244D+00 0.694D+00
 Gap=     0.243 Goal=   None    Shift=    0.000
 Gap=     0.147 Goal=   None    Shift=    0.000
 RMSDP=6.26D-05 MaxDP=1.07D-02 DE=-1.40D-02 OVMax= 2.17D-02

 Cycle   6  Pass 1  IDiag  1:
 RMSU=  5.07D-05    CP:  9.88D-01  8.19D-01  8.55D-01  9.76D-01  1.15D+00
 CoulSu:  requested number of processors reduced to:  15 ShMem   1 Linda.
 CalDSu:  requested number of processors reduced to:  33 ShMem   1 Linda.
 E= -2277.98046576048     Delta-E=       -0.002569317146 Rises=F Damp=F
 DIIS: error= 4.44D-04 at cycle   6 NSaved=   6.
 NSaved= 6 IEnMin= 6 EnMin= -2277.98046576048     IErMin= 6 ErrMin= 4.44D-04
 ErrMax= 4.44D-04  0.00D+00 EMaxC= 1.00D-01 BMatC= 9.19D-04 BMatP= 8.88D-03
 IDIUse=3 WtCom= 9.96D-01 WtEn= 4.44D-03
 Coeff-Com:  0.325D-03-0.158D-02-0.381D-01 0.130D-02 0.265D+00 0.773D+00
 Coeff-En:   0.000D+00 0.000D+00 0.000D+00 0.000D+00 0.000D+00 0.100D+01
 Coeff:      0.323D-03-0.157D-02-0.379D-01 0.130D-02 0.263D+00 0.774D+00
 Gap=     0.242 Goal=   None    Shift=    0.000
 Gap=     0.153 Goal=   None    Shift=    0.000
 RMSDP=3.84D-05 MaxDP=9.10D-03 DE=-2.57D-03 OVMax= 1.41D-02

 Cycle   7  Pass 1  IDiag  1:
 RMSU=  2.40D-05    CP:  9.88D-01  8.31D-01  8.49D-01  1.02D+00  1.32D+00
                    CP:  1.21D+00
 CoulSu:  requested number of processors reduced to:  15 ShMem   1 Linda.
 CalDSu:  requested number of processors reduced to:  33 ShMem   1 Linda.
 E= -2277.98093626680     Delta-E=       -0.000470506317 Rises=F Damp=F
 DIIS: error= 1.75D-04 at cycle   7 NSaved=   7.
 NSaved= 7 IEnMin= 7 EnMin= -2277.98093626680     IErMin= 7 ErrMin= 1.75D-04
 ErrMax= 1.75D-04  0.00D+00 EMaxC= 1.00D-01 BMatC= 1.93D-04 BMatP= 9.19D-04
 IDIUse=3 WtCom= 9.98D-01 WtEn= 1.75D-03
 Coeff-Com:  0.303D-02-0.503D-02-0.116D-01-0.391D-01-0.264D-01 0.301D+00
 Coeff-Com:  0.778D+00
 Coeff-En:   0.000D+00 0.000D+00 0.000D+00 0.000D+00 0.000D+00 0.000D+00
 Coeff-En:   0.100D+01
 Coeff:      0.302D-02-0.502D-02-0.116D-01-0.390D-01-0.264D-01 0.300D+00
 Coeff:      0.779D+00
 Gap=     0.243 Goal=   None    Shift=    0.000
 Gap=     0.155 Goal=   None    Shift=    0.000
 RMSDP=1.91D-05 MaxDP=4.97D-03 DE=-4.71D-04 OVMax= 1.13D-02

 Cycle   8  Pass 1  IDiag  1:
 RMSU=  1.15D-05    CP:  9.88D-01  8.28D-01  8.51D-01  1.02D+00  1.36D+00
                    CP:  1.43D+00  1.33D+00
 CoulSu:  requested number of processors reduced to:  15 ShMem   1 Linda.
 CalDSu:  requested number of processors reduced to:  33 ShMem   1 Linda.
 E= -2277.98104626654     Delta-E=       -0.000109999741 Rises=F Damp=F
 DIIS: error= 8.56D-05 at cycle   8 NSaved=   8.
 NSaved= 8 IEnMin= 8 EnMin= -2277.98104626654     IErMin= 8 ErrMin= 8.56D-05
 ErrMax= 8.56D-05  0.00D+00 EMaxC= 1.00D-01 BMatC= 4.34D-05 BMatP= 1.93D-04
 IDIUse=1 WtCom= 1.00D+00 WtEn= 0.00D+00
 Coeff-Com:  0.936D-03-0.146D-02 0.333D-02-0.113D-01-0.490D-01-0.331D-01
 Coeff-Com:  0.307D+00 0.784D+00
 Coeff:      0.936D-03-0.146D-02 0.333D-02-0.113D-01-0.490D-01-0.331D-01
 Coeff:      0.307D+00 0.784D+00
 Gap=     0.243 Goal=   None    Shift=    0.000
 Gap=     0.154 Goal=   None    Shift=    0.000
 RMSDP=9.90D-06 MaxDP=2.61D-03 DE=-1.10D-04 OVMax= 6.04D-03

 Cycle   9  Pass 1  IDiag  1:
 RMSU=  5.45D-06    CP:  9.88D-01  8.28D-01  8.52D-01  1.02D+00  1.39D+00
                    CP:  1.50D+00  1.59D+00  1.21D+00
 CoulSu:  requested number of processors reduced to:  15 ShMem   1 Linda.
 CalDSu:  requested number of processors reduced to:  33 ShMem   1 Linda.
 E= -2277.98107500787     Delta-E=       -0.000028741330 Rises=F Damp=F
 DIIS: error= 3.84D-05 at cycle   9 NSaved=   9.
 NSaved= 9 IEnMin= 9 EnMin= -2277.98107500787     IErMin= 9 ErrMin= 3.84D-05
 ErrMax= 3.84D-05  0.00D+00 EMaxC= 1.00D-01 BMatC= 1.02D-05 BMatP= 4.34D-05
 IDIUse=1 WtCom= 1.00D+00 WtEn= 0.00D+00
 Coeff-Com: -0.347D-03 0.567D-03 0.312D-02 0.470D-02-0.975D-02-0.721D-01
 Coeff-Com: -0.621D-01 0.318D+00 0.818D+00
 Coeff:     -0.347D-03 0.567D-03 0.312D-02 0.470D-02-0.975D-02-0.721D-01
 Coeff:     -0.621D-01 0.318D+00 0.818D+00
 Gap=     0.243 Goal=   None    Shift=    0.000
 Gap=     0.154 Goal=   None    Shift=    0.000
 RMSDP=5.68D-06 MaxDP=1.39D-03 DE=-2.87D-05 OVMax= 4.19D-03

 Cycle  10  Pass 1  IDiag  1:
 RMSU=  2.50D-06    CP:  9.88D-01  8.28D-01  8.52D-01  1.02D+00  1.39D+00
                    CP:  1.54D+00  1.72D+00  1.49D+00  1.25D+00
 CoulSu:  requested number of processors reduced to:  15 ShMem   1 Linda.
 CalDSu:  requested number of processors reduced to:  33 ShMem   1 Linda.
 E= -2277.98108334156     Delta-E=       -0.000008333690 Rises=F Damp=F
 DIIS: error= 2.22D-05 at cycle  10 NSaved=  10.
 NSaved=10 IEnMin=10 EnMin= -2277.98108334156     IErMin=10 ErrMin= 2.22D-05
 ErrMax= 2.22D-05  0.00D+00 EMaxC= 1.00D-01 BMatC= 2.06D-06 BMatP= 1.02D-05
 IDIUse=1 WtCom= 1.00D+00 WtEn= 0.00D+00
 Coeff-Com: -0.318D-03 0.604D-03 0.116D-03 0.335D-02 0.597D-02-0.159D-01
 Coeff-Com: -0.770D-01-0.379D-01 0.296D+00 0.825D+00
 Coeff:     -0.318D-03 0.604D-03 0.116D-03 0.335D-02 0.597D-02-0.159D-01
 Coeff:     -0.770D-01-0.379D-01 0.296D+00 0.825D+00
 Gap=     0.243 Goal=   None    Shift=    0.000
 Gap=     0.154 Goal=   None    Shift=    0.000
 RMSDP=2.73D-06 MaxDP=5.60D-04 DE=-8.33D-06 OVMax= 2.03D-03

 Cycle  11  Pass 1  IDiag  1:
 RMSU=  1.10D-06    CP:  9.88D-01  8.28D-01  8.52D-01  1.02D+00  1.40D+00
                    CP:  1.56D+00  1.77D+00  1.59D+00  1.50D+00  1.35D+00
 CoulSu:  requested number of processors reduced to:  15 ShMem   1 Linda.
 CalDSu:  requested number of processors reduced to:  33 ShMem   1 Linda.
 E= -2277.98108538465     Delta-E=       -0.000002043084 Rises=F Damp=F
 DIIS: error= 1.13D-05 at cycle  11 NSaved=  11.
 NSaved=11 IEnMin=11 EnMin= -2277.98108538465     IErMin=11 ErrMin= 1.13D-05
 ErrMax= 1.13D-05  0.00D+00 EMaxC= 1.00D-01 BMatC= 4.61D-07 BMatP= 2.06D-06
 IDIUse=1 WtCom= 1.00D+00 WtEn= 0.00D+00
 Coeff-Com: -0.241D-04 0.890D-04-0.632D-03-0.539D-03 0.248D-02 0.981D-02
 Coeff-Com:  0.355D-03-0.788D-01-0.961D-01 0.219D+00 0.944D+00
 Coeff:     -0.241D-04 0.890D-04-0.632D-03-0.539D-03 0.248D-02 0.981D-02
 Coeff:      0.355D-03-0.788D-01-0.961D-01 0.219D+00 0.944D+00
 Gap=     0.242 Goal=   None    Shift=    0.000
 Gap=     0.154 Goal=   None    Shift=    0.000
 RMSDP=1.65D-06 MaxDP=2.53D-04 DE=-2.04D-06 OVMax= 1.22D-03

 Cycle  12  Pass 1  IDiag  1:
 RMSU=  5.88D-07    CP:  9.88D-01  8.28D-01  8.52D-01  1.02D+00  1.40D+00
                    CP:  1.56D+00  1.80D+00  1.64D+00  1.64D+00  1.69D+00
                    CP:  1.43D+00
 CoulSu:  requested number of processors reduced to:  15 ShMem   1 Linda.
 CalDSu:  requested number of processors reduced to:  33 ShMem   1 Linda.
 E= -2277.98108600640     Delta-E=       -0.000000621751 Rises=F Damp=F
 DIIS: error= 5.92D-06 at cycle  12 NSaved=  12.
 NSaved=12 IEnMin=12 EnMin= -2277.98108600640     IErMin=12 ErrMin= 5.92D-06
 ErrMax= 5.92D-06  0.00D+00 EMaxC= 1.00D-01 BMatC= 1.36D-07 BMatP= 4.61D-07
 IDIUse=1 WtCom= 1.00D+00 WtEn= 0.00D+00
 Coeff-Com:  0.531D-04-0.766D-04-0.284D-03-0.101D-02-0.189D-03 0.736D-02
 Coeff-Com:  0.219D-01-0.214D-01-0.112D+00-0.150D+00 0.334D+00 0.921D+00
 Coeff:      0.531D-04-0.766D-04-0.284D-03-0.101D-02-0.189D-03 0.736D-02
 Coeff:      0.219D-01-0.214D-01-0.112D+00-0.150D+00 0.334D+00 0.921D+00
 Gap=     0.242 Goal=   None    Shift=    0.000
 Gap=     0.154 Goal=   None    Shift=    0.000
 RMSDP=9.70D-07 MaxDP=1.09D-04 DE=-6.22D-07 OVMax= 6.68D-04

 Cycle  13  Pass 1  IDiag  1:
 RMSU=  2.84D-07    CP:  9.88D-01  8.28D-01  8.52D-01  1.02D+00  1.40D+00
                    CP:  1.56D+00  1.81D+00  1.67D+00  1.71D+00  1.87D+00
                    CP:  1.83D+00  1.49D+00
 CoulSu:  requested number of processors reduced to:  15 ShMem   1 Linda.
 CalDSu:  requested number of processors reduced to:  33 ShMem   1 Linda.
 E= -2277.98108618215     Delta-E=       -0.000000175753 Rises=F Damp=F
 DIIS: error= 2.35D-06 at cycle  13 NSaved=  13.
 NSaved=13 IEnMin=13 EnMin= -2277.98108618215     IErMin=13 ErrMin= 2.35D-06
 ErrMax= 2.35D-06  0.00D+00 EMaxC= 1.00D-01 BMatC= 2.80D-08 BMatP= 1.36D-07
 IDIUse=1 WtCom= 1.00D+00 WtEn= 0.00D+00
 Coeff-Com:  0.703D-06-0.116D-05 0.932D-04-0.819D-04-0.425D-03-0.314D-03
 Coeff-Com:  0.626D-02 0.106D-01-0.992D-02-0.103D+00-0.123D+00 0.288D+00
 Coeff-Com:  0.931D+00
 Coeff:      0.703D-06-0.116D-05 0.932D-04-0.819D-04-0.425D-03-0.314D-03
 Coeff:      0.626D-02 0.106D-01-0.992D-02-0.103D+00-0.123D+00 0.288D+00
 Coeff:      0.931D+00
 Gap=     0.242 Goal=   None    Shift=    0.000
 Gap=     0.154 Goal=   None    Shift=    0.000
 RMSDP=4.54D-07 MaxDP=4.44D-05 DE=-1.76D-07 OVMax= 2.75D-04

 Cycle  14  Pass 1  IDiag  1:
 RMSU=  1.20D-07    CP:  9.88D-01  8.28D-01  8.52D-01  1.02D+00  1.40D+00
                    CP:  1.57D+00  1.81D+00  1.68D+00  1.74D+00  1.94D+00
                    CP:  2.02D+00  1.87D+00  1.35D+00
 CoulSu:  requested number of processors reduced to:  15 ShMem   1 Linda.
 CalDSu:  requested number of processors reduced to:  33 ShMem   1 Linda.
 E= -2277.98108621529     Delta-E=       -0.000000033146 Rises=F Damp=F
 DIIS: error= 9.45D-07 at cycle  14 NSaved=  14.
 NSaved=14 IEnMin=14 EnMin= -2277.98108621529     IErMin=14 ErrMin= 9.45D-07
 ErrMax= 9.45D-07  0.00D+00 EMaxC= 1.00D-01 BMatC= 5.10D-09 BMatP= 2.80D-08
 IDIUse=1 WtCom= 1.00D+00 WtEn= 0.00D+00
 Coeff-Com: -0.789D-05 0.101D-04 0.589D-04 0.154D-03-0.386D-04-0.133D-02
 Coeff-Com: -0.217D-02 0.679D-02 0.185D-01 0.424D-03-0.948D-01-0.938D-01
 Coeff-Com:  0.270D+00 0.896D+00
 Coeff:     -0.789D-05 0.101D-04 0.589D-04 0.154D-03-0.386D-04-0.133D-02
 Coeff:     -0.217D-02 0.679D-02 0.185D-01 0.424D-03-0.948D-01-0.938D-01
 Coeff:      0.270D+00 0.896D+00
 Gap=     0.242 Goal=   None    Shift=    0.000
 Gap=     0.154 Goal=   None    Shift=    0.000
 RMSDP=1.46D-07 MaxDP=1.58D-05 DE=-3.31D-08 OVMax= 6.17D-05

 Cycle  15  Pass 1  IDiag  1:
 RMSU=  6.02D-08    CP:  9.88D-01  8.28D-01  8.52D-01  1.02D+00  1.40D+00
                    CP:  1.57D+00  1.81D+00  1.68D+00  1.75D+00  1.95D+00
                    CP:  2.06D+00  1.99D+00  1.58D+00  1.32D+00
 CoulSu:  requested number of processors reduced to:  15 ShMem   1 Linda.
 CalDSu:  requested number of processors reduced to:  33 ShMem   1 Linda.
 E= -2277.98108621981     Delta-E=       -0.000000004515 Rises=F Damp=F
 DIIS: error= 4.74D-07 at cycle  15 NSaved=  15.
 NSaved=15 IEnMin=15 EnMin= -2277.98108621981     IErMin=15 ErrMin= 4.74D-07
 ErrMax= 4.74D-07  0.00D+00 EMaxC= 1.00D-01 BMatC= 1.28D-09 BMatP= 5.10D-09
 IDIUse=1 WtCom= 1.00D+00 WtEn= 0.00D+00
 Coeff-Com: -0.406D-05 0.647D-05 0.889D-05 0.780D-04 0.476D-04-0.577D-03
 Coeff-Com: -0.219D-02 0.849D-03 0.100D-01 0.207D-01-0.157D-01-0.971D-01
 Coeff-Com: -0.792D-01 0.350D+00 0.813D+00
 Coeff:     -0.406D-05 0.647D-05 0.889D-05 0.780D-04 0.476D-04-0.577D-03
 Coeff:     -0.219D-02 0.849D-03 0.100D-01 0.207D-01-0.157D-01-0.971D-01
 Coeff:     -0.792D-01 0.350D+00 0.813D+00
 Gap=     0.242 Goal=   None    Shift=    0.000
 Gap=     0.154 Goal=   None    Shift=    0.000
 RMSDP=6.04D-08 MaxDP=7.08D-06 DE=-4.51D-09 OVMax= 1.88D-05

 Cycle  16  Pass 1  IDiag  1:
 RMSU=  2.34D-08    CP:  9.88D-01  8.28D-01  8.52D-01  1.02D+00  1.40D+00
                    CP:  1.57D+00  1.82D+00  1.68D+00  1.75D+00  1.95D+00
                    CP:  2.08D+00  2.03D+00  1.68D+00  1.58D+00  1.23D+00
 CoulSu:  requested number of processors reduced to:  15 ShMem   1 Linda.
 CalDSu:  requested number of processors reduced to:  33 ShMem   1 Linda.
 E= -2277.98108622063     Delta-E=       -0.000000000820 Rises=F Damp=F
 DIIS: error= 1.75D-07 at cycle  16 NSaved=  16.
 NSaved=16 IEnMin=16 EnMin= -2277.98108622063     IErMin=16 ErrMin= 1.75D-07
 ErrMax= 1.75D-07  0.00D+00 EMaxC= 1.00D-01 BMatC= 1.67D-10 BMatP= 1.28D-09
 IDIUse=1 WtCom= 1.00D+00 WtEn= 0.00D+00
 Coeff-Com: -0.398D-06 0.215D-05-0.749D-05-0.199D-04 0.151D-04 0.145D-03
 Coeff-Com:  0.839D-04-0.113D-02-0.192D-02 0.416D-02 0.161D-01-0.100D-02
 Coeff-Com: -0.651D-01-0.995D-01 0.134D+00 0.101D+01
 Coeff:     -0.398D-06 0.215D-05-0.749D-05-0.199D-04 0.151D-04 0.145D-03
 Coeff:      0.839D-04-0.113D-02-0.192D-02 0.416D-02 0.161D-01-0.100D-02
 Coeff:     -0.651D-01-0.995D-01 0.134D+00 0.101D+01
 Gap=     0.242 Goal=   None    Shift=    0.000
 Gap=     0.154 Goal=   None    Shift=    0.000
 RMSDP=2.60D-08 MaxDP=1.83D-06 DE=-8.20D-10 OVMax= 1.02D-05

 Cycle  17  Pass 1  IDiag  1:
 RMSU=  1.38D-08    CP:  9.88D-01  8.28D-01  8.52D-01  1.02D+00  1.40D+00
                    CP:  1.57D+00  1.82D+00  1.68D+00  1.75D+00  1.95D+00
                    CP:  2.08D+00  2.05D+00  1.71D+00  1.67D+00  1.44D+00
                    CP:  1.30D+00
 CoulSu:  requested number of processors reduced to:  15 ShMem   1 Linda.
 CalDSu:  requested number of processors reduced to:  33 ShMem   1 Linda.
 E= -2277.98108622087     Delta-E=       -0.000000000241 Rises=F Damp=F
 DIIS: error= 7.66D-08 at cycle  17 NSaved=  17.
 NSaved=17 IEnMin=17 EnMin= -2277.98108622087     IErMin=17 ErrMin= 7.66D-08
 ErrMax= 7.66D-08  0.00D+00 EMaxC= 1.00D-01 BMatC= 3.56D-11 BMatP= 1.67D-10
 IDIUse=1 WtCom= 1.00D+00 WtEn= 0.00D+00
 Coeff-Com: -0.241D-06 0.117D-05 0.128D-05-0.579D-05-0.105D-04 0.604D-04
 Coeff-Com:  0.298D-03-0.115D-03-0.159D-02-0.335D-02 0.290D-02 0.158D-01
 Coeff-Com:  0.107D-01-0.657D-01-0.140D+00 0.838D-01 0.110D+01
 Coeff:     -0.241D-06 0.117D-05 0.128D-05-0.579D-05-0.105D-04 0.604D-04
 Coeff:      0.298D-03-0.115D-03-0.159D-02-0.335D-02 0.290D-02 0.158D-01
 Coeff:      0.107D-01-0.657D-01-0.140D+00 0.838D-01 0.110D+01
 Gap=     0.242 Goal=   None    Shift=    0.000
 Gap=     0.154 Goal=   None    Shift=    0.000
 RMSDP=1.32D-08 MaxDP=9.25D-07 DE=-2.41D-10 OVMax= 3.87D-06

 Cycle  18  Pass 1  IDiag  1:
 RMSU=  6.47D-09    CP:  9.88D-01  8.28D-01  8.52D-01  1.02D+00  1.40D+00
                    CP:  1.57D+00  1.82D+00  1.68D+00  1.75D+00  1.95D+00
                    CP:  2.08D+00  2.05D+00  1.72D+00  1.69D+00  1.50D+00
                    CP:  1.62D+00  1.41D+00
 CoulSu:  requested number of processors reduced to:  15 ShMem   1 Linda.
 CalDSu:  requested number of processors reduced to:  33 ShMem   1 Linda.
 E= -2277.98108622090     Delta-E=       -0.000000000026 Rises=F Damp=F
 DIIS: error= 3.93D-08 at cycle  18 NSaved=  18.
 NSaved=18 IEnMin=18 EnMin= -2277.98108622090     IErMin=18 ErrMin= 3.93D-08
 ErrMax= 3.93D-08  0.00D+00 EMaxC= 1.00D-01 BMatC= 9.73D-12 BMatP= 3.56D-11
 IDIUse=1 WtCom= 1.00D+00 WtEn= 0.00D+00
 Coeff-Com: -0.449D-06 0.746D-06 0.313D-05 0.609D-05-0.107D-04-0.316D-04
 Coeff-Com:  0.591D-05 0.281D-03 0.272D-03-0.144D-02-0.360D-02 0.282D-02
 Coeff-Com:  0.175D-01 0.138D-01-0.451D-01-0.260D+00 0.176D+00 0.110D+01
 Coeff:     -0.449D-06 0.746D-06 0.313D-05 0.609D-05-0.107D-04-0.316D-04
 Coeff:      0.591D-05 0.281D-03 0.272D-03-0.144D-02-0.360D-02 0.282D-02
 Coeff:      0.175D-01 0.138D-01-0.451D-01-0.260D+00 0.176D+00 0.110D+01
 Gap=     0.242 Goal=   None    Shift=    0.000
 Gap=     0.154 Goal=   None    Shift=    0.000
 RMSDP=7.83D-09 MaxDP=5.57D-07 DE=-2.64D-11 OVMax= 2.63D-06

 SCF Done:  E(UM062X) =  -2277.98108622     A.U. after   18 cycles
            NFock= 18  Conv=0.78D-08     -V/T= 2.0019
 <Sx>= 0.0000 <Sy>= 0.0000 <Sz>= 0.5000 <S**2>= 0.7554 S= 0.5027
 <L.S>= 0.000000000000E+00
 KE= 2.273669229913D+03 PE=-7.598054730074D+03 EE= 1.952964670161D+03
 Annihilation of the first spin contaminant:
 S**2 before annihilation     0.7554,   after     0.7500
 Leave Link  502 at Sat Apr 17 02:06:47 2021, MaxMem=   104857600 cpu:           48160.3 elap:            2497.8
 (Enter /s/ls4/users/knvvv/bin/g16sse/l601.exe)
 Copying SCF densities to generalized density rwf, IOpCl= 1 IROHF=0.

 **********************************************************************

            Population analysis using the SCF density.

 **********************************************************************

 Orbital symmetries:
 Alpha Orbitals:
       Occupied  (A) (A) (A) (A) (A) (A) (A) (A) (A) (A) (A) (A)
                 (A) (A) (A) (A) (A) (A) (A) (A) (A) (A) (A) (A)
                 (A) (A) (A) (A) (A) (A) (A) (A) (A) (A) (A) (A)
                 (A) (A) (A) (A) (A) (A) (A) (A) (A) (A) (A) (A)
                 (A) (A) (A) (A) (A) (A) (A) (A) (A) (A) (A) (A)
                 (A)
       Virtual   (A) (A) (A) (A) (A) (A) (A) (A) (A) (A) (A) (A)
                 (A) (A) (A) (A) (A) (A) (A) (A) (A) (A) (A) (A)
                 (A) (A) (A) (A) (A) (A) (A) (A) (A) (A) (A) (A)
                 (A) (A) (A) (A) (A) (A) (A) (A) (A) (A) (A) (A)
                 (A) (A) (A) (A) (A) (A) (A) (A) (A) (A) (A) (A)
                 (A) (A) (A) (A) (A) (A) (A) (A) (A) (A) (A) (A)
                 (A) (A) (A) (A) (A) (A) (A) (A) (A) (A) (A) (A)
                 (A) (A) (A) (A) (A) (A) (A) (A) (A) (A) (A) (A)
                 (A) (A) (A) (A) (A) (A) (A) (A) (A) (A) (A) (A)
                 (A) (A) (A) (A) (A) (A) (A) (A) (A) (A) (A) (A)
                 (A) (A) (A) (A) (A) (A) (A) (A) (A) (A) (A) (A)
                 (A) (A) (A) (A) (A) (A) (A) (A) (A) (A) (A) (A)
                 (A) (A) (A) (A) (A) (A) (A) (A) (A) (A) (A) (A)
                 (A) (A) (A) (A) (A) (A) (A) (A) (A) (A) (A) (A)
                 (A) (A) (A) (A) (A) (A) (A) (A) (A) (A) (A) (A)
                 (A) (A) (A) (A) (A) (A) (A) (A) (A) (A) (A) (A)
                 (A) (A) (A) (A) (A) (A) (A) (A) (A) (A) (A) (A)
                 (A) (A) (A) (A) (A) (A) (A) (A) (A) (A) (A) (A)
                 (A) (A) (A) (A) (A) (A) (A) (A) (A) (A) (A) (A)
                 (A) (A) (A) (A) (A) (A) (A) (A) (A) (A) (A) (A)
                 (A) (A) (A) (A) (A) (A) (A) (A) (A) (A) (A) (A)
                 (A) (A) (A) (A) (A) (A) (A) (A) (A) (A) (A) (A)
                 (A) (A) (A) (A) (A) (A) (A) (A) (A) (A) (A) (A)
                 (A) (A) (A) (A) (A) (A) (A) (A) (A) (A) (A) (A)
                 (A) (A) (A) (A) (A) (A) (A) (A) (A) (A) (A) (A)
                 (A) (A) (A) (A) (A) (A) (A) (A) (A) (A) (A) (A)
                 (A) (A) (A) (A) (A) (A) (A) (A) (A) (A) (A) (A)
                 (A) (A) (A) (A) (A) (A) (A) (A) (A) (A) (A) (A)
                 (A) (A) (A) (A) (A) (A) (A) (A) (A) (A) (A) (A)
                 (A) (A) (A) (A) (A) (A) (A) (A) (A) (A) (A) (A)
                 (A) (A) (A) (A) (A) (A) (A) (A) (A) (A) (A) (A)
                 (A) (A) (A) (A) (A) (A) (A) (A) (A) (A) (A) (A)
                 (A) (A) (A) (A) (A) (A) (A) (A) (A) (A) (A) (A)
                 (A) (A) (A) (A) (A) (A) (A) (A) (A) (A) (A) (A)
                 (A) (A) (A) (A) (A) (A) (A) (A) (A) (A) (A) (A)
                 (A) (A) (A) (A) (A) (A) (A) (A) (A) (A) (A) (A)
                 (A) (A) (A) (A) (A) (A) (A) (A) (A) (A) (A) (A)
                 (A) (A) (A) (A) (A) (A) (A) (A) (A) (A) (A) (A)
                 (A) (A) (A) (A) (A) (A) (A) (A) (A) (A) (A) (A)
                 (A) (A) (A) (A) (A) (A) (A) (A) (A) (A) (A) (A)
                 (A) (A) (A) (A) (A) (A) (A) (A) (A) (A) (A) (A)
                 (A) (A) (A) (A) (A) (A) (A) (A) (A) (A) (A) (A)
                 (A) (A) (A) (A) (A) (A) (A) (A) (A) (A) (A) (A)
                 (A) (A) (A) (A) (A) (A) (A) (A) (A) (A) (A) (A)
                 (A) (A) (A) (A) (A) (A) (A) (A) (A) (A) (A) (A)
                 (A) (A) (A) (A) (A) (A) (A) (A) (A) (A) (A) (A)
                 (A) (A) (A) (A) (A) (A) (A) (A) (A) (A) (A) (A)
                 (A) (A) (A) (A) (A) (A) (A) (A) (A) (A) (A) (A)
                 (A) (A) (A) (A) (A) (A) (A) (A) (A) (A) (A) (A)
                 (A) (A) (A) (A) (A) (A) (A) (A) (A) (A) (A) (A)
                 (A) (A) (A) (A) (A) (A) (A) (A) (A) (A) (A) (A)
                 (A) (A) (A) (A) (A) (A) (A) (A) (A) (A) (A) (A)
                 (A) (A) (A) (A) (A) (A) (A) (A) (A) (A) (A) (A)
                 (A) (A) (A) (A) (A) (A) (A) (A) (A) (A) (A) (A)
                 (A) (A) (A) (A) (A) (A) (A) (A) (A) (A) (A) (A)
                 (A) (A) (A) (A) (A) (A) (A) (A) (A) (A) (A) (A)
                 (A) (A) (A) (A) (A) (A) (A) (A) (A) (A) (A) (A)
                 (A) (A) (A) (A) (A) (A) (A) (A) (A) (A) (A) (A)
                 (A) (A) (A) (A) (A) (A) (A) (A) (A) (A) (A) (A)
                 (A) (A) (A) (A) (A) (A) (A) (A) (A) (A) (A) (A)
                 (A) (A) (A) (A) (A) (A) (A) (A) (A) (A) (A) (A)
                 (A) (A) (A) (A) (A) (A) (A) (A) (A) (A) (A) (A)
                 (A) (A) (A) (A) (A) (A) (A) (A) (A) (A) (A) (A)
                 (A) (A) (A) (A) (A) (A) (A) (A) (A) (A) (A)
 Beta  Orbitals:
       Occupied  (A) (A) (A) (A) (A) (A) (A) (A) (A) (A) (A) (A)
                 (A) (A) (A) (A) (A) (A) (A) (A) (A) (A) (A) (A)
                 (A) (A) (A) (A) (A) (A) (A) (A) (A) (A) (A) (A)
                 (A) (A) (A) (A) (A) (A) (A) (A) (A) (A) (A) (A)
                 (A) (A) (A) (A) (A) (A) (A) (A) (A) (A) (A) (A)
       Virtual   (A) (A) (A) (A) (A) (A) (A) (A) (A) (A) (A) (A)
                 (A) (A) (A) (A) (A) (A) (A) (A) (A) (A) (A) (A)
                 (A) (A) (A) (A) (A) (A) (A) (A) (A) (A) (A) (A)
                 (A) (A) (A) (A) (A) (A) (A) (A) (A) (A) (A) (A)
                 (A) (A) (A) (A) (A) (A) (A) (A) (A) (A) (A) (A)
                 (A) (A) (A) (A) (A) (A) (A) (A) (A) (A) (A) (A)
                 (A) (A) (A) (A) (A) (A) (A) (A) (A) (A) (A) (A)
                 (A) (A) (A) (A) (A) (A) (A) (A) (A) (A) (A) (A)
                 (A) (A) (A) (A) (A) (A) (A) (A) (A) (A) (A) (A)
                 (A) (A) (A) (A) (A) (A) (A) (A) (A) (A) (A) (A)
                 (A) (A) (A) (A) (A) (A) (A) (A) (A) (A) (A) (A)
                 (A) (A) (A) (A) (A) (A) (A) (A) (A) (A) (A) (A)
                 (A) (A) (A) (A) (A) (A) (A) (A) (A) (A) (A) (A)
                 (A) (A) (A) (A) (A) (A) (A) (A) (A) (A) (A) (A)
                 (A) (A) (A) (A) (A) (A) (A) (A) (A) (A) (A) (A)
                 (A) (A) (A) (A) (A) (A) (A) (A) (A) (A) (A) (A)
                 (A) (A) (A) (A) (A) (A) (A) (A) (A) (A) (A) (A)
                 (A) (A) (A) (A) (A) (A) (A) (A) (A) (A) (A) (A)
                 (A) (A) (A) (A) (A) (A) (A) (A) (A) (A) (A) (A)
                 (A) (A) (A) (A) (A) (A) (A) (A) (A) (A) (A) (A)
                 (A) (A) (A) (A) (A) (A) (A) (A) (A) (A) (A) (A)
                 (A) (A) (A) (A) (A) (A) (A) (A) (A) (A) (A) (A)
                 (A) (A) (A) (A) (A) (A) (A) (A) (A) (A) (A) (A)
                 (A) (A) (A) (A) (A) (A) (A) (A) (A) (A) (A) (A)
                 (A) (A) (A) (A) (A) (A) (A) (A) (A) (A) (A) (A)
                 (A) (A) (A) (A) (A) (A) (A) (A) (A) (A) (A) (A)
                 (A) (A) (A) (A) (A) (A) (A) (A) (A) (A) (A) (A)
                 (A) (A) (A) (A) (A) (A) (A) (A) (A) (A) (A) (A)
                 (A) (A) (A) (A) (A) (A) (A) (A) (A) (A) (A) (A)
                 (A) (A) (A) (A) (A) (A) (A) (A) (A) (A) (A) (A)
                 (A) (A) (A) (A) (A) (A) (A) (A) (A) (A) (A) (A)
                 (A) (A) (A) (A) (A) (A) (A) (A) (A) (A) (A) (A)
                 (A) (A) (A) (A) (A) (A) (A) (A) (A) (A) (A) (A)
                 (A) (A) (A) (A) (A) (A) (A) (A) (A) (A) (A) (A)
                 (A) (A) (A) (A) (A) (A) (A) (A) (A) (A) (A) (A)
                 (A) (A) (A) (A) (A) (A) (A) (A) (A) (A) (A) (A)
                 (A) (A) (A) (A) (A) (A) (A) (A) (A) (A) (A) (A)
                 (A) (A) (A) (A) (A) (A) (A) (A) (A) (A) (A) (A)
                 (A) (A) (A) (A) (A) (A) (A) (A) (A) (A) (A) (A)
                 (A) (A) (A) (A) (A) (A) (A) (A) (A) (A) (A) (A)
                 (A) (A) (A) (A) (A) (A) (A) (A) (A) (A) (A) (A)
                 (A) (A) (A) (A) (A) (A) (A) (A) (A) (A) (A) (A)
                 (A) (A) (A) (A) (A) (A) (A) (A) (A) (A) (A) (A)
                 (A) (A) (A) (A) (A) (A) (A) (A) (A) (A) (A) (A)
                 (A) (A) (A) (A) (A) (A) (A) (A) (A) (A) (A) (A)
                 (A) (A) (A) (A) (A) (A) (A) (A) (A) (A) (A) (A)
                 (A) (A) (A) (A) (A) (A) (A) (A) (A) (A) (A) (A)
                 (A) (A) (A) (A) (A) (A) (A) (A) (A) (A) (A) (A)
                 (A) (A) (A) (A) (A) (A) (A) (A) (A) (A) (A) (A)
                 (A) (A) (A) (A) (A) (A) (A) (A) (A) (A) (A) (A)
                 (A) (A) (A) (A) (A) (A) (A) (A) (A) (A) (A) (A)
                 (A) (A) (A) (A) (A) (A) (A) (A) (A) (A) (A) (A)
                 (A) (A) (A) (A) (A) (A) (A) (A) (A) (A) (A) (A)
                 (A) (A) (A) (A) (A) (A) (A) (A) (A) (A) (A) (A)
                 (A) (A) (A) (A) (A) (A) (A) (A) (A) (A) (A) (A)
                 (A) (A) (A) (A) (A) (A) (A) (A) (A) (A) (A) (A)
                 (A) (A) (A) (A) (A) (A) (A) (A) (A) (A) (A) (A)
                 (A) (A) (A) (A) (A) (A) (A) (A) (A) (A) (A) (A)
                 (A) (A) (A) (A) (A) (A) (A) (A) (A) (A) (A) (A)
                 (A) (A) (A) (A) (A) (A) (A) (A) (A) (A) (A) (A)
                 (A) (A) (A) (A) (A) (A) (A) (A) (A) (A) (A) (A)
                 (A) (A) (A) (A) (A) (A) (A) (A) (A) (A) (A) (A)
                 (A) (A) (A) (A) (A) (A) (A) (A) (A) (A) (A) (A)
                 (A) (A) (A) (A) (A) (A) (A) (A) (A) (A) (A) (A)
 The electronic state is 2-A.
 Alpha  occ. eigenvalues -- -102.66531 -78.12520 -78.06814 -78.04145 -78.02343
 Alpha  occ. eigenvalues --  -67.08870 -14.78678 -14.73647  -9.82083  -7.54494
 Alpha  occ. eigenvalues --   -7.54077  -7.54053  -7.08510  -7.08321  -6.93321
 Alpha  occ. eigenvalues --   -6.87925  -6.85961  -6.84115  -5.62340  -5.04991
 Alpha  occ. eigenvalues --   -5.04862  -5.04655  -4.99600  -4.99566  -4.99316
 Alpha  occ. eigenvalues --   -4.97603  -4.97523  -4.97428  -4.95786  -4.95726
 Alpha  occ. eigenvalues --   -4.95629  -3.93930  -3.93361  -3.93243  -1.01958
 Alpha  occ. eigenvalues --   -0.95733  -0.94008  -0.77060  -0.74287  -0.69108
 Alpha  occ. eigenvalues --   -0.66069  -0.64873  -0.57384  -0.55077  -0.52252
 Alpha  occ. eigenvalues --   -0.49710  -0.48455  -0.47477  -0.45492  -0.43349
 Alpha  occ. eigenvalues --   -0.42241  -0.40939  -0.40186  -0.39068  -0.36951
 Alpha  occ. eigenvalues --   -0.35807  -0.34520  -0.33012  -0.30717  -0.28715
 Alpha  occ. eigenvalues --   -0.28249
 Alpha virt. eigenvalues --   -0.04010  -0.03772  -0.02760  -0.00239   0.00208
 Alpha virt. eigenvalues --    0.00860   0.01920   0.03151   0.03989   0.04784
 Alpha virt. eigenvalues --    0.05499   0.05590   0.06157   0.06904   0.07060
 Alpha virt. eigenvalues --    0.07403   0.08811   0.09180   0.10322   0.10595
 Alpha virt. eigenvalues --    0.11650   0.12256   0.12399   0.12665   0.13606
 Alpha virt. eigenvalues --    0.14023   0.14396   0.15164   0.16025   0.16385
 Alpha virt. eigenvalues --    0.17636   0.18013   0.18467   0.19486   0.19938
 Alpha virt. eigenvalues --    0.20625   0.21249   0.21297   0.21986   0.22972
 Alpha virt. eigenvalues --    0.23497   0.24026   0.24799   0.25007   0.25495
 Alpha virt. eigenvalues --    0.26018   0.26823   0.26850   0.27645   0.28051
 Alpha virt. eigenvalues --    0.29098   0.29808   0.30242   0.31047   0.31921
 Alpha virt. eigenvalues --    0.32141   0.32899   0.33403   0.34297   0.35111
 Alpha virt. eigenvalues --    0.35897   0.36621   0.36835   0.37999   0.38127
 Alpha virt. eigenvalues --    0.38889   0.39633   0.40081   0.40323   0.40998
 Alpha virt. eigenvalues --    0.41630   0.41972   0.42688   0.43907   0.44181
 Alpha virt. eigenvalues --    0.44941   0.45242   0.45923   0.46644   0.48725
 Alpha virt. eigenvalues --    0.48769   0.49284   0.49688   0.50375   0.51289
 Alpha virt. eigenvalues --    0.51332   0.52403   0.52947   0.53793   0.54018
 Alpha virt. eigenvalues --    0.54838   0.55798   0.55956   0.57425   0.57935
 Alpha virt. eigenvalues --    0.57942   0.59114   0.59409   0.60926   0.61105
 Alpha virt. eigenvalues --    0.62025   0.62475   0.62712   0.64434   0.64789
 Alpha virt. eigenvalues --    0.65328   0.66043   0.67494   0.67741   0.68670
 Alpha virt. eigenvalues --    0.69439   0.70751   0.71449   0.72706   0.73226
 Alpha virt. eigenvalues --    0.73950   0.74547   0.75204   0.77250   0.77492
 Alpha virt. eigenvalues --    0.78275   0.78865   0.79264   0.80594   0.80640
 Alpha virt. eigenvalues --    0.82371   0.82558   0.82783   0.83762   0.84565
 Alpha virt. eigenvalues --    0.85807   0.86044   0.86614   0.87304   0.87806
 Alpha virt. eigenvalues --    0.88102   0.88452   0.89934   0.90156   0.90607
 Alpha virt. eigenvalues --    0.91432   0.91613   0.92296   0.92680   0.93480
 Alpha virt. eigenvalues --    0.93946   0.94402   0.94717   0.95256   0.96337
 Alpha virt. eigenvalues --    0.97554   0.98484   0.99275   0.99844   1.00572
 Alpha virt. eigenvalues --    1.01512   1.02180   1.03002   1.04423   1.05232
 Alpha virt. eigenvalues --    1.05696   1.06239   1.06744   1.08066   1.08658
 Alpha virt. eigenvalues --    1.09359   1.10200   1.10558   1.11199   1.12225
 Alpha virt. eigenvalues --    1.12884   1.13444   1.13731   1.14902   1.15670
 Alpha virt. eigenvalues --    1.16134   1.16788   1.17642   1.18445   1.19456
 Alpha virt. eigenvalues --    1.20006   1.21332   1.21774   1.22100   1.22397
 Alpha virt. eigenvalues --    1.23755   1.24398   1.24848   1.25390   1.25521
 Alpha virt. eigenvalues --    1.26139   1.26549   1.26968   1.27834   1.28277
 Alpha virt. eigenvalues --    1.28739   1.29664   1.30036   1.31396   1.32483
 Alpha virt. eigenvalues --    1.32688   1.33190   1.33416   1.33935   1.34903
 Alpha virt. eigenvalues --    1.35664   1.37342   1.37575   1.38080   1.39401
 Alpha virt. eigenvalues --    1.39869   1.40861   1.41506   1.42112   1.43350
 Alpha virt. eigenvalues --    1.44170   1.45163   1.47386   1.47723   1.48803
 Alpha virt. eigenvalues --    1.49110   1.50108   1.50349   1.51208   1.51766
 Alpha virt. eigenvalues --    1.52232   1.53199   1.54257   1.55306   1.55589
 Alpha virt. eigenvalues --    1.56665   1.57668   1.58817   1.59718   1.59842
 Alpha virt. eigenvalues --    1.61214   1.61614   1.63487   1.63887   1.64523
 Alpha virt. eigenvalues --    1.65108   1.66000   1.66959   1.67356   1.68711
 Alpha virt. eigenvalues --    1.69964   1.70327   1.71572   1.73779   1.75093
 Alpha virt. eigenvalues --    1.76345   1.76621   1.77002   1.78345   1.79141
 Alpha virt. eigenvalues --    1.79926   1.80659   1.82200   1.82511   1.84452
 Alpha virt. eigenvalues --    1.84983   1.86909   1.87728   1.89399   1.90159
 Alpha virt. eigenvalues --    1.91801   1.92539   1.93620   1.95319   1.96591
 Alpha virt. eigenvalues --    1.98501   1.98992   1.99583   2.01924   2.03120
 Alpha virt. eigenvalues --    2.04813   2.06105   2.06955   2.07850   2.08196
 Alpha virt. eigenvalues --    2.08894   2.11694   2.12247   2.13167   2.14214
 Alpha virt. eigenvalues --    2.14969   2.16810   2.17727   2.18667   2.19329
 Alpha virt. eigenvalues --    2.19962   2.20928   2.22899   2.22978   2.23583
 Alpha virt. eigenvalues --    2.24618   2.25740   2.27278   2.28412   2.29524
 Alpha virt. eigenvalues --    2.30112   2.31663   2.32152   2.33191   2.34052
 Alpha virt. eigenvalues --    2.34875   2.35475   2.36216   2.36888   2.37122
 Alpha virt. eigenvalues --    2.38015   2.38687   2.40543   2.41223   2.41999
 Alpha virt. eigenvalues --    2.42466   2.43131   2.43942   2.44359   2.45830
 Alpha virt. eigenvalues --    2.46959   2.47361   2.48928   2.49698   2.50308
 Alpha virt. eigenvalues --    2.50388   2.51340   2.53778   2.53973   2.55703
 Alpha virt. eigenvalues --    2.56081   2.57444   2.58098   2.58315   2.59618
 Alpha virt. eigenvalues --    2.60595   2.61503   2.62094   2.62347   2.62784
 Alpha virt. eigenvalues --    2.63918   2.64339   2.65315   2.66094   2.68389
 Alpha virt. eigenvalues --    2.68639   2.69359   2.70721   2.71192   2.71908
 Alpha virt. eigenvalues --    2.72897   2.73495   2.73920   2.74702   2.75871
 Alpha virt. eigenvalues --    2.76651   2.77884   2.79198   2.79704   2.80308
 Alpha virt. eigenvalues --    2.80898   2.82646   2.83011   2.83954   2.84853
 Alpha virt. eigenvalues --    2.85562   2.86597   2.87847   2.88982   2.90981
 Alpha virt. eigenvalues --    2.91488   2.92051   2.92917   2.94266   2.94985
 Alpha virt. eigenvalues --    2.95423   2.96958   2.97439   2.98222   2.98560
 Alpha virt. eigenvalues --    2.99250   2.99991   3.00937   3.02161   3.03698
 Alpha virt. eigenvalues --    3.04206   3.04674   3.05652   3.07131   3.07577
 Alpha virt. eigenvalues --    3.09042   3.10046   3.10993   3.11482   3.12630
 Alpha virt. eigenvalues --    3.12861   3.13479   3.14768   3.15400   3.16679
 Alpha virt. eigenvalues --    3.17760   3.18820   3.19206   3.20821   3.21824
 Alpha virt. eigenvalues --    3.23305   3.24150   3.25081   3.25519   3.26971
 Alpha virt. eigenvalues --    3.27627   3.28082   3.29521   3.30416   3.30902
 Alpha virt. eigenvalues --    3.31130   3.32464   3.32868   3.33207   3.34813
 Alpha virt. eigenvalues --    3.36555   3.38090   3.38971   3.39292   3.40356
 Alpha virt. eigenvalues --    3.41284   3.42780   3.43599   3.44345   3.45559
 Alpha virt. eigenvalues --    3.46182   3.46803   3.47308   3.47869   3.49660
 Alpha virt. eigenvalues --    3.50701   3.51037   3.51992   3.52348   3.53487
 Alpha virt. eigenvalues --    3.54330   3.55133   3.56150   3.56660   3.58148
 Alpha virt. eigenvalues --    3.58631   3.59532   3.60440   3.61101   3.62181
 Alpha virt. eigenvalues --    3.63092   3.65134   3.65540   3.65940   3.67274
 Alpha virt. eigenvalues --    3.68180   3.68746   3.70886   3.71677   3.72669
 Alpha virt. eigenvalues --    3.74724   3.75595   3.76665   3.77279   3.78695
 Alpha virt. eigenvalues --    3.81493   3.82065   3.83696   3.84443   3.85946
 Alpha virt. eigenvalues --    3.86714   3.89039   3.89483   3.90504   3.91945
 Alpha virt. eigenvalues --    3.92553   3.93056   3.93752   3.94093   3.96302
 Alpha virt. eigenvalues --    3.97268   3.97949   3.99758   4.00353   4.00711
 Alpha virt. eigenvalues --    4.02452   4.03252   4.04752   4.05601   4.06484
 Alpha virt. eigenvalues --    4.07046   4.08510   4.09629   4.10638   4.12866
 Alpha virt. eigenvalues --    4.13695   4.14340   4.15211   4.17725   4.20806
 Alpha virt. eigenvalues --    4.22147   4.23757   4.24384   4.26129   4.27378
 Alpha virt. eigenvalues --    4.29510   4.30385   4.32786   4.33376   4.36880
 Alpha virt. eigenvalues --    4.38589   4.39223   4.42253   4.43956   4.46740
 Alpha virt. eigenvalues --    4.47613   4.51237   4.52721   4.56207   4.56738
 Alpha virt. eigenvalues --    4.60327   4.61344   4.64960   4.66648   4.68711
 Alpha virt. eigenvalues --    4.72460   4.75627   4.80919   4.82940   4.85206
 Alpha virt. eigenvalues --    4.86725   4.92319   4.95001   4.97562   5.02296
 Alpha virt. eigenvalues --    5.07615   5.17384   5.22613   5.25582   5.36613
 Alpha virt. eigenvalues --    5.43316   5.44025   5.51252   5.56782   5.57963
 Alpha virt. eigenvalues --    5.59481   5.60965   5.62776   5.63602   5.65853
 Alpha virt. eigenvalues --    5.67252   5.68341   5.70658   5.72088   5.73121
 Alpha virt. eigenvalues --    5.78119   5.79812   5.83572   5.85358   5.89218
 Alpha virt. eigenvalues --    5.90665   5.92639   5.93528   5.96198   6.00140
 Alpha virt. eigenvalues --    6.02265   6.03887   6.04753   6.06815   6.07658
 Alpha virt. eigenvalues --    6.12874   6.13347   6.14130   6.19436   6.23996
 Alpha virt. eigenvalues --    6.27132   6.27899   6.32437   6.36204   6.36779
 Alpha virt. eigenvalues --    6.39066   6.40497   6.41702   6.46930   6.49178
 Alpha virt. eigenvalues --    6.58665   6.59531   6.61561   6.62988   6.70181
 Alpha virt. eigenvalues --    6.75917   6.78127   6.79863   6.81001   6.83990
 Alpha virt. eigenvalues --    6.85533   6.86589   6.87949   6.92152   6.96719
 Alpha virt. eigenvalues --    7.04659   7.07941   7.10702   7.12737   7.16292
 Alpha virt. eigenvalues --    7.19043   7.19700   7.20780   7.21785   7.25317
 Alpha virt. eigenvalues --    7.27150   7.28405   7.31035   7.33518   7.34808
 Alpha virt. eigenvalues --    7.36246   7.37325   7.39832   7.42869   7.44408
 Alpha virt. eigenvalues --    7.46036   7.49058   7.50391   7.53447   7.53979
 Alpha virt. eigenvalues --    7.54409   7.55740   7.59234   7.60633   7.61518
 Alpha virt. eigenvalues --    7.63429   7.64262   7.66045   7.67524   7.69605
 Alpha virt. eigenvalues --    7.70167   7.72294   7.73037   7.74902   7.76243
 Alpha virt. eigenvalues --    7.77185   7.79625   7.80617   7.82520   7.84323
 Alpha virt. eigenvalues --    7.86103   7.88231   7.90396   7.92385   7.93207
 Alpha virt. eigenvalues --    7.95811   7.96689   8.00014   8.02532   8.03426
 Alpha virt. eigenvalues --    8.08351   8.10361   8.12957   8.16320   8.19327
 Alpha virt. eigenvalues --    8.22802   8.25283   8.29983   8.32037   8.38512
 Alpha virt. eigenvalues --    8.40819   8.41992   8.42975   8.44910   8.46288
 Alpha virt. eigenvalues --    8.47374   8.49567   8.50443   8.52056   8.56362
 Alpha virt. eigenvalues --    8.67546   8.68515   8.69272   8.71069   8.77108
 Alpha virt. eigenvalues --    8.78525   8.79722   8.80599   8.82821   8.83903
 Alpha virt. eigenvalues --    8.87511   8.91782   8.94440   9.05027   9.07397
 Alpha virt. eigenvalues --    9.11897   9.14269   9.16435   9.21382   9.26017
 Alpha virt. eigenvalues --    9.28598   9.34520   9.36138   9.37570   9.40607
 Alpha virt. eigenvalues --    9.42114   9.43433   9.46417   9.53529   9.55585
 Alpha virt. eigenvalues --    9.64545   9.71922   9.75920   9.98471  10.12217
 Alpha virt. eigenvalues --   10.32042  10.40176  10.45824  10.70832  10.71193
 Alpha virt. eigenvalues --   10.81939  10.82533  11.05965  11.25679  11.28691
 Alpha virt. eigenvalues --   11.31194  11.37418  11.94604  12.51271  12.72420
 Alpha virt. eigenvalues --   14.38681  16.64893  18.06380  18.12231  18.25280
 Alpha virt. eigenvalues --   18.29488  18.34802  18.36914  18.48002  18.50000
 Alpha virt. eigenvalues --   18.68084  18.76095  18.78122  18.82718  19.90070
 Alpha virt. eigenvalues --   20.10148  20.39870  20.47795  20.69908  20.75255
 Alpha virt. eigenvalues --   28.74037  37.59061  37.72347  42.03191  42.03420
 Alpha virt. eigenvalues --   42.09386  58.19735  70.80446  70.86832  71.09297
 Alpha virt. eigenvalues --   71.12657  98.50313 101.36132 101.53859 195.16226
 Alpha virt. eigenvalues --  195.27709 315.43710 380.87881 380.95574 381.33030
 Alpha virt. eigenvalues --  381.38912 524.44709
  Beta  occ. eigenvalues -- -102.66513 -78.12500 -78.06790 -78.04144 -78.02313
  Beta  occ. eigenvalues --  -67.08326 -14.78653 -14.73650  -9.82077  -7.54453
  Beta  occ. eigenvalues --   -7.54065  -7.54047  -7.08510  -7.08326  -6.93302
  Beta  occ. eigenvalues --   -6.87919  -6.85960  -6.84099  -5.61947  -5.04986
  Beta  occ. eigenvalues --   -5.04843  -5.04636  -4.99591  -4.99513  -4.99295
  Beta  occ. eigenvalues --   -4.97606  -4.97524  -4.97420  -4.95775  -4.95722
  Beta  occ. eigenvalues --   -4.95549  -3.93185  -3.93050  -3.92679  -1.01751
  Beta  occ. eigenvalues --   -0.95724  -0.93886  -0.76951  -0.74117  -0.68597
  Beta  occ. eigenvalues --   -0.64797  -0.64586  -0.57084  -0.54149  -0.52010
  Beta  occ. eigenvalues --   -0.49302  -0.48098  -0.47103  -0.45266  -0.43254
  Beta  occ. eigenvalues --   -0.42027  -0.40768  -0.40002  -0.38954  -0.36897
  Beta  occ. eigenvalues --   -0.35551  -0.34276  -0.31091  -0.28726  -0.28617
  Beta virt. eigenvalues --   -0.13217  -0.03986  -0.03649  -0.02454  -0.00484
  Beta virt. eigenvalues --    0.00291   0.01081   0.02115   0.02975   0.03869
  Beta virt. eigenvalues --    0.04691   0.05527   0.05822   0.06233   0.06458
  Beta virt. eigenvalues --    0.06966   0.07258   0.08481   0.09032   0.10227
  Beta virt. eigenvalues --    0.10449   0.11643   0.11885   0.12210   0.12613
  Beta virt. eigenvalues --    0.13449   0.14071   0.14094   0.15062   0.16221
  Beta virt. eigenvalues --    0.16732   0.17187   0.17869   0.18345   0.19560
  Beta virt. eigenvalues --    0.19823   0.20788   0.21082   0.21273   0.21961
  Beta virt. eigenvalues --    0.22922   0.23263   0.23994   0.24611   0.24875
  Beta virt. eigenvalues --    0.25186   0.25941   0.26046   0.26864   0.27271
  Beta virt. eigenvalues --    0.27941   0.28719   0.29342   0.30125   0.30688
  Beta virt. eigenvalues --    0.31435   0.31775   0.31947   0.33171   0.33784
  Beta virt. eigenvalues --    0.35067   0.35947   0.36516   0.36652   0.37502
  Beta virt. eigenvalues --    0.37979   0.38596   0.39418   0.39501   0.39958
  Beta virt. eigenvalues --    0.40473   0.41229   0.41804   0.42350   0.42676
  Beta virt. eigenvalues --    0.44109   0.44502   0.44751   0.45421   0.46599
  Beta virt. eigenvalues --    0.47442   0.48693   0.48791   0.49449   0.50312
  Beta virt. eigenvalues --    0.50683   0.50869   0.51967   0.52414   0.53647
  Beta virt. eigenvalues --    0.54014   0.54536   0.55105   0.55987   0.57117
  Beta virt. eigenvalues --    0.57487   0.57743   0.58729   0.59487   0.60687
  Beta virt. eigenvalues --    0.61055   0.61927   0.62272   0.62456   0.64298
  Beta virt. eigenvalues --    0.64534   0.64698   0.65686   0.66887   0.67643
  Beta virt. eigenvalues --    0.68420   0.68992   0.70416   0.70877   0.72001
  Beta virt. eigenvalues --    0.73074   0.73387   0.74341   0.75001   0.77088
  Beta virt. eigenvalues --    0.77196   0.77821   0.78316   0.78958   0.79948
  Beta virt. eigenvalues --    0.80166   0.82105   0.82451   0.82622   0.83421
  Beta virt. eigenvalues --    0.84450   0.85307   0.85829   0.86456   0.86719
  Beta virt. eigenvalues --    0.87413   0.87895   0.88216   0.89768   0.89956
  Beta virt. eigenvalues --    0.90263   0.90835   0.91203   0.91979   0.92329
  Beta virt. eigenvalues --    0.92970   0.93817   0.94138   0.94574   0.94983
  Beta virt. eigenvalues --    0.96096   0.97354   0.97721   0.98903   0.99242
  Beta virt. eigenvalues --    1.00341   1.01051   1.01433   1.02488   1.03815
  Beta virt. eigenvalues --    1.04801   1.05126   1.06083   1.06655   1.07512
  Beta virt. eigenvalues --    1.08535   1.09011   1.10066   1.10284   1.10903
  Beta virt. eigenvalues --    1.11760   1.12775   1.13186   1.13717   1.14864
  Beta virt. eigenvalues --    1.15493   1.15832   1.16683   1.17170   1.18270
  Beta virt. eigenvalues --    1.19190   1.19759   1.21122   1.21355   1.21979
  Beta virt. eigenvalues --    1.22350   1.23277   1.23824   1.24595   1.25312
  Beta virt. eigenvalues --    1.25397   1.26004   1.26443   1.26771   1.27385
  Beta virt. eigenvalues --    1.28229   1.28570   1.29025   1.29749   1.30969
  Beta virt. eigenvalues --    1.31757   1.32552   1.33081   1.33295   1.33784
  Beta virt. eigenvalues --    1.34763   1.35562   1.37167   1.37449   1.38051
  Beta virt. eigenvalues --    1.38989   1.39738   1.40855   1.41389   1.41919
  Beta virt. eigenvalues --    1.43100   1.44056   1.45136   1.47282   1.47473
  Beta virt. eigenvalues --    1.48878   1.49001   1.50110   1.50367   1.51111
  Beta virt. eigenvalues --    1.51859   1.52199   1.53067   1.54175   1.55438
  Beta virt. eigenvalues --    1.55706   1.56628   1.57786   1.58950   1.59680
  Beta virt. eigenvalues --    1.59934   1.61227   1.61374   1.63496   1.63901
  Beta virt. eigenvalues --    1.64470   1.65190   1.66001   1.66916   1.67447
  Beta virt. eigenvalues --    1.68582   1.69991   1.70359   1.71771   1.73906
  Beta virt. eigenvalues --    1.75357   1.76227   1.76614   1.76900   1.78377
  Beta virt. eigenvalues --    1.79231   1.80123   1.80738   1.82015   1.82635
  Beta virt. eigenvalues --    1.84593   1.85138   1.87135   1.87637   1.89409
  Beta virt. eigenvalues --    1.90399   1.91931   1.92703   1.93857   1.95796
  Beta virt. eigenvalues --    1.96739   1.98827   1.99262   1.99811   2.02784
  Beta virt. eigenvalues --    2.03863   2.05116   2.06220   2.07044   2.08285
  Beta virt. eigenvalues --    2.08308   2.09061   2.11909   2.12472   2.13278
  Beta virt. eigenvalues --    2.14742   2.15347   2.17175   2.18159   2.18722
  Beta virt. eigenvalues --    2.19729   2.20744   2.20950   2.23197   2.23719
  Beta virt. eigenvalues --    2.23881   2.24866   2.25551   2.27552   2.28640
  Beta virt. eigenvalues --    2.29722   2.29946   2.31718   2.32179   2.33499
  Beta virt. eigenvalues --    2.34299   2.35061   2.35608   2.36435   2.37026
  Beta virt. eigenvalues --    2.37339   2.38094   2.38798   2.40735   2.41447
  Beta virt. eigenvalues --    2.42221   2.42737   2.43439   2.44184   2.44583
  Beta virt. eigenvalues --    2.45958   2.47260   2.47830   2.49039   2.49885
  Beta virt. eigenvalues --    2.50576   2.50739   2.51532   2.53924   2.54077
  Beta virt. eigenvalues --    2.55970   2.56150   2.57564   2.58323   2.58606
  Beta virt. eigenvalues --    2.59785   2.60783   2.61662   2.62357   2.62524
  Beta virt. eigenvalues --    2.63151   2.64189   2.64548   2.65494   2.66224
  Beta virt. eigenvalues --    2.68615   2.68899   2.69429   2.70881   2.71377
  Beta virt. eigenvalues --    2.72237   2.73037   2.73680   2.74187   2.75041
  Beta virt. eigenvalues --    2.76076   2.76820   2.78121   2.79466   2.79859
  Beta virt. eigenvalues --    2.80605   2.81149   2.83025   2.83235   2.84081
  Beta virt. eigenvalues --    2.84993   2.85772   2.86848   2.88080   2.89143
  Beta virt. eigenvalues --    2.91139   2.91872   2.92292   2.92935   2.94417
  Beta virt. eigenvalues --    2.95184   2.95662   2.97256   2.97701   2.98341
  Beta virt. eigenvalues --    2.98698   2.99472   3.00199   3.01053   3.02252
  Beta virt. eigenvalues --    3.03983   3.04368   3.05177   3.05839   3.07302
  Beta virt. eigenvalues --    3.07633   3.09169   3.10293   3.11278   3.11737
  Beta virt. eigenvalues --    3.12789   3.13035   3.13691   3.15205   3.15688
  Beta virt. eigenvalues --    3.17073   3.17981   3.19055   3.19435   3.21010
  Beta virt. eigenvalues --    3.22014   3.23516   3.24326   3.25265   3.25652
  Beta virt. eigenvalues --    3.27191   3.27819   3.28193   3.29511   3.30491
  Beta virt. eigenvalues --    3.31065   3.31255   3.32606   3.33189   3.33486
  Beta virt. eigenvalues --    3.34855   3.36777   3.38273   3.38826   3.39646
  Beta virt. eigenvalues --    3.40521   3.41510   3.43194   3.43840   3.44548
  Beta virt. eigenvalues --    3.45661   3.46518   3.46919   3.47461   3.48109
  Beta virt. eigenvalues --    3.49965   3.50794   3.51262   3.52049   3.52412
  Beta virt. eigenvalues --    3.53720   3.54541   3.55428   3.56399   3.56802
  Beta virt. eigenvalues --    3.58220   3.58754   3.59612   3.60556   3.61276
  Beta virt. eigenvalues --    3.62336   3.63309   3.65486   3.65724   3.66065
  Beta virt. eigenvalues --    3.67434   3.68482   3.69190   3.70994   3.71902
  Beta virt. eigenvalues --    3.72857   3.75057   3.76000   3.76833   3.77514
  Beta virt. eigenvalues --    3.78892   3.81840   3.82362   3.84253   3.84824
  Beta virt. eigenvalues --    3.86286   3.86969   3.89314   3.89734   3.90617
  Beta virt. eigenvalues --    3.92151   3.92699   3.93276   3.94021   3.94303
  Beta virt. eigenvalues --    3.96560   3.97501   3.98256   4.00071   4.00529
  Beta virt. eigenvalues --    4.00987   4.02643   4.03594   4.05154   4.05805
  Beta virt. eigenvalues --    4.06684   4.07349   4.08805   4.09789   4.10894
  Beta virt. eigenvalues --    4.13027   4.13843   4.14618   4.15578   4.18378
  Beta virt. eigenvalues --    4.21123   4.22588   4.24197   4.24696   4.26494
  Beta virt. eigenvalues --    4.27610   4.29839   4.30805   4.33409   4.33703
  Beta virt. eigenvalues --    4.37274   4.39122   4.39867   4.42524   4.44258
  Beta virt. eigenvalues --    4.47103   4.48091   4.51671   4.53508   4.56507
  Beta virt. eigenvalues --    4.57435   4.60512   4.61528   4.65161   4.67034
  Beta virt. eigenvalues --    4.69569   4.73457   4.76049   4.81912   4.83209
  Beta virt. eigenvalues --    4.85301   4.86832   4.92527   4.95876   4.98083
  Beta virt. eigenvalues --    5.02426   5.07854   5.19237   5.22854   5.25966
  Beta virt. eigenvalues --    5.36733   5.43533   5.44512   5.53204   5.57795
  Beta virt. eigenvalues --    5.58108   5.60128   5.61155   5.63397   5.64109
  Beta virt. eigenvalues --    5.65949   5.67276   5.68846   5.71759   5.72676
  Beta virt. eigenvalues --    5.74292   5.78364   5.80763   5.84867   5.87199
  Beta virt. eigenvalues --    5.90546   5.91742   5.93773   5.96548   5.96983
  Beta virt. eigenvalues --    6.00732   6.04530   6.04642   6.06698   6.06978
  Beta virt. eigenvalues --    6.09687   6.13122   6.14070   6.15596   6.20135
  Beta virt. eigenvalues --    6.24584   6.26708   6.28360   6.33152   6.37853
  Beta virt. eigenvalues --    6.40109   6.40445   6.42915   6.44105   6.48168
  Beta virt. eigenvalues --    6.50222   6.59000   6.60410   6.62308   6.63856
  Beta virt. eigenvalues --    6.71089   6.77739   6.79448   6.82083   6.83852
  Beta virt. eigenvalues --    6.85343   6.87009   6.87982   6.89331   6.93081
  Beta virt. eigenvalues --    7.00086   7.05192   7.09129   7.11699   7.14324
  Beta virt. eigenvalues --    7.16350   7.19586   7.20134   7.21117   7.22315
  Beta virt. eigenvalues --    7.27171   7.28169   7.28965   7.31636   7.33962
  Beta virt. eigenvalues --    7.35665   7.36371   7.37735   7.41137   7.43128
  Beta virt. eigenvalues --    7.44568   7.46236   7.49166   7.50649   7.53697
  Beta virt. eigenvalues --    7.54128   7.54786   7.55851   7.60255   7.60903
  Beta virt. eigenvalues --    7.63289   7.63706   7.64870   7.67229   7.67704
  Beta virt. eigenvalues --    7.69692   7.70768   7.72559   7.74369   7.74957
  Beta virt. eigenvalues --    7.76266   7.79356   7.79933   7.80850   7.82488
  Beta virt. eigenvalues --    7.85616   7.86448   7.88160   7.90586   7.92405
  Beta virt. eigenvalues --    7.93230   7.96122   7.97161   7.99845   8.03295
  Beta virt. eigenvalues --    8.04139   8.08951   8.10815   8.14248   8.19277
  Beta virt. eigenvalues --    8.19413   8.23045   8.25527   8.31713   8.32856
  Beta virt. eigenvalues --    8.39437   8.41028   8.43069   8.45034   8.45520
  Beta virt. eigenvalues --    8.47710   8.49066   8.50240   8.51512   8.55398
  Beta virt. eigenvalues --    8.59282   8.68208   8.69592   8.70694   8.74369
  Beta virt. eigenvalues --    8.76340   8.79928   8.80687   8.81666   8.83952
  Beta virt. eigenvalues --    8.85839   8.88292   8.93392   9.03277   9.05215
  Beta virt. eigenvalues --    9.07408   9.13741   9.15898   9.16467   9.24055
  Beta virt. eigenvalues --    9.28610   9.34289   9.36095   9.37680   9.40216
  Beta virt. eigenvalues --    9.41750   9.43201   9.43483   9.46772   9.53604
  Beta virt. eigenvalues --    9.56013   9.64494   9.72406   9.76052   9.99360
  Beta virt. eigenvalues --   10.12219  10.32045  10.40361  10.45811  10.70859
  Beta virt. eigenvalues --   10.71216  10.82003  10.82590  11.06054  11.25740
  Beta virt. eigenvalues --   11.28749  11.31305  11.37393  11.99897  12.54176
  Beta virt. eigenvalues --   12.75056  14.38732  16.67198  18.06501  18.12486
  Beta virt. eigenvalues --   18.25337  18.29884  18.35018  18.36949  18.48124
  Beta virt. eigenvalues --   18.50095  18.68184  18.76247  18.78236  18.82810
  Beta virt. eigenvalues --   19.90557  20.10192  20.39942  20.47926  20.70034
  Beta virt. eigenvalues --   20.75321  28.74154  37.59018  37.72490  42.03219
  Beta virt. eigenvalues --   42.03436  42.09495  58.20777  70.80482  70.86900
  Beta virt. eigenvalues --   71.09356  71.12690  98.50360 101.36216 101.53869
  Beta virt. eigenvalues --  195.16224 195.27732 315.43219 380.87871 380.95551
  Beta virt. eigenvalues --  381.33014 381.38906 524.44694
          Condensed to atoms (all electrons):
               1          2          3          4          5          6
     1  B    4.402275  -0.000262   0.107798  -0.046714  -0.075654   0.438615
     2  P   -0.000262  13.895509  -0.005687  -0.000108  -0.044791   0.002414
     3  H    0.107798  -0.005687   0.834047   0.006487  -0.012388  -0.006930
     4  H   -0.046714  -0.000108   0.006487   0.698880   0.003143   0.333129
     5  B   -0.075654  -0.044791  -0.012388   0.003143   3.755705  -0.054051
     6  P    0.438615   0.002414  -0.006930   0.333129  -0.054051  14.149766
     7  H   -0.023932   0.001118   0.015263  -0.003828  -0.022720  -0.051614
     8  Cl   0.002675   0.244767  -0.000173   0.000004   0.000858  -0.000134
     9  N   -0.023339   0.317050  -0.034262   0.000098  -0.011906   0.004794
    10  H    0.001467  -0.013172  -0.001085   0.000025   0.007404   0.000462
    11  P    0.386677   0.321990  -0.024475   0.002207   0.438299  -0.015384
    12  Si  -0.021255  -0.032189   0.276936  -0.004368   0.021063  -0.054022
    13  H   -0.001060  -0.000999  -0.021116  -0.000005  -0.000198   0.001499
    14  H    0.353404  -0.004105  -0.021157  -0.001470   0.002703  -0.026867
    15  P   -0.084408   0.001339   0.002081  -0.017744  -0.050462   0.368213
    16  N   -0.029817  -0.003577  -0.004131   0.001817   0.816406  -0.055930
               7          8          9         10         11         12
     1  B   -0.023932   0.002675  -0.023339   0.001467   0.386677  -0.021255
     2  P    0.001118   0.244767   0.317050  -0.013172   0.321990  -0.032189
     3  H    0.015263  -0.000173  -0.034262  -0.001085  -0.024475   0.276936
     4  H   -0.003828   0.000004   0.000098   0.000025   0.002207  -0.004368
     5  B   -0.022720   0.000858  -0.011906   0.007404   0.438299   0.021063
     6  P   -0.051614  -0.000134   0.004794   0.000462  -0.015384  -0.054022
     7  H    0.841236  -0.000025  -0.000145  -0.000835   0.004921   0.008025
     8  Cl  -0.000025  17.057257  -0.056050   0.008014  -0.050431   0.002512
     9  N   -0.000145  -0.056050   6.529990   0.327985  -0.056978   0.483412
    10  H   -0.000835   0.008014   0.327985   0.416030  -0.008789  -0.018600
    11  P    0.004921  -0.050431  -0.056978  -0.008789  13.936643  -0.025060
    12  Si   0.008025   0.002512   0.483412  -0.018600  -0.025060  12.562646
    13  H   -0.000014   0.000143  -0.012882   0.002332  -0.000572   0.383461
    14  H    0.000750   0.000101   0.001581  -0.000119  -0.019613  -0.001072
    15  P    0.314922   0.000042   0.000685  -0.000141   0.004834  -0.016430
    16  N   -0.047356   0.001072  -0.009468   0.003874  -0.024609   0.014018
              13         14         15         16
     1  B   -0.001060   0.353404  -0.084408  -0.029817
     2  P   -0.000999  -0.004105   0.001339  -0.003577
     3  H   -0.021116  -0.021157   0.002081  -0.004131
     4  H   -0.000005  -0.001470  -0.017744   0.001817
     5  B   -0.000198   0.002703  -0.050462   0.816406
     6  P    0.001499  -0.026867   0.368213  -0.055930
     7  H   -0.000014   0.000750   0.314922  -0.047356
     8  Cl   0.000143   0.000101   0.000042   0.001072
     9  N   -0.012882   0.001581   0.000685  -0.009468
    10  H    0.002332  -0.000119  -0.000141   0.003874
    11  P   -0.000572  -0.019613   0.004834  -0.024609
    12  Si   0.383461  -0.001072  -0.016430   0.014018
    13  H    0.664621  -0.001940   0.000533  -0.000080
    14  H   -0.001940   0.533120   0.006288  -0.000040
    15  P    0.000533   0.006288  13.945153   0.336060
    16  N   -0.000080  -0.000040   0.336060   6.519068
          Atomic-Atomic Spin Densities.
               1          2          3          4          5          6
     1  B    0.076827   0.004574   0.022134  -0.000330  -0.001669  -0.019408
     2  P    0.004574   0.030339  -0.002083  -0.000010   0.000973   0.000114
     3  H    0.022134  -0.002083  -0.040983  -0.000269  -0.003791   0.001358
     4  H   -0.000330  -0.000010  -0.000269   0.004165   0.000068  -0.001731
     5  B   -0.001669   0.000973  -0.003791   0.000068   0.009310  -0.000374
     6  P   -0.019408   0.000114   0.001358  -0.001731  -0.000374   0.051402
     7  H    0.004900   0.000173   0.002085  -0.000586  -0.000322  -0.001036
     8  Cl   0.000115  -0.006428   0.000059  -0.000000  -0.000375  -0.000059
     9  N   -0.006959   0.012123   0.002499   0.000008  -0.001062  -0.000184
    10  H   -0.000015  -0.003225   0.000101  -0.000001   0.000426  -0.000114
    11  P    0.003196  -0.002531  -0.001379   0.000083   0.000143   0.003795
    12  Si   0.009038  -0.011574  -0.026715   0.000422   0.001733   0.004694
    13  H    0.002655   0.000239   0.002701  -0.000051   0.000361  -0.000940
    14  H   -0.007506  -0.000632  -0.001215   0.000261   0.000222   0.004086
    15  P   -0.003844   0.000320   0.004683   0.000170  -0.000706  -0.005041
    16  N   -0.000484  -0.000606  -0.000581  -0.000044  -0.000468  -0.000362
               7          8          9         10         11         12
     1  B    0.004900   0.000115  -0.006959  -0.000015   0.003196   0.009038
     2  P    0.000173  -0.006428   0.012123  -0.003225  -0.002531  -0.011574
     3  H    0.002085   0.000059   0.002499   0.000101  -0.001379  -0.026715
     4  H   -0.000586  -0.000000   0.000008  -0.000001   0.000083   0.000422
     5  B   -0.000322  -0.000375  -0.001062   0.000426   0.000143   0.001733
     6  P   -0.001036  -0.000059  -0.000184  -0.000114   0.003795   0.004694
     7  H   -0.032395   0.000014   0.000466   0.000333  -0.000881  -0.020417
     8  Cl   0.000014   0.016912  -0.001195   0.000173   0.000115   0.002097
     9  N    0.000466  -0.001195  -0.024146   0.001232   0.004304  -0.012190
    10  H    0.000333   0.000173   0.001232   0.010942  -0.000680  -0.003793
    11  P   -0.000881   0.000115   0.004304  -0.000680  -0.010907  -0.008682
[...]
  Beta virt. eigenvalues --   42.03436  42.09495  58.20777  70.80482  70.86900
  Beta virt. eigenvalues --   71.09356  71.12690  98.50360 101.36216 101.53869
  Beta virt. eigenvalues --  195.16224 195.27732 315.43219 380.87871 380.95551
  Beta virt. eigenvalues --  381.33014 381.38906 524.44694
          Condensed to atoms (all electrons):
               1          2          3          4          5          6
     1  B    4.402275  -0.000262   0.107798  -0.046714  -0.075654   0.438615
     2  P   -0.000262  13.895509  -0.005687  -0.000108  -0.044791   0.002414
     3  H    0.107798  -0.005687   0.834047   0.006487  -0.012388  -0.006930
     4  H   -0.046714  -0.000108   0.006487   0.698880   0.003143   0.333129
     5  B   -0.075654  -0.044791  -0.012388   0.003143   3.755705  -0.054051
     6  P    0.438615   0.002414  -0.006930   0.333129  -0.054051  14.149766
     7  H   -0.023932   0.001118   0.015263  -0.003828  -0.022720  -0.051614
     8  Cl   0.002675   0.244767  -0.000173   0.000004   0.000858  -0.000134
     9  N   -0.023339   0.317050  -0.034262   0.000098  -0.011906   0.004794
    10  H    0.001467  -0.013172  -0.001085   0.000025   0.007404   0.000462
    11  P    0.386677   0.321990  -0.024475   0.002207   0.438299  -0.015384
    12  Si  -0.021255  -0.032189   0.276936  -0.004368   0.021063  -0.054022
    13  H   -0.001060  -0.000999  -0.021116  -0.000005  -0.000198   0.001499
    14  H    0.353404  -0.004105  -0.021157  -0.001470   0.002703  -0.026867
    15  P   -0.084408   0.001339   0.002081  -0.017744  -0.050462   0.368213
    16  N   -0.029817  -0.003577  -0.004131   0.001817   0.816406  -0.055930
               7          8          9         10         11         12
     1  B   -0.023932   0.002675  -0.023339   0.001467   0.386677  -0.021255
     2  P    0.001118   0.244767   0.317050  -0.013172   0.321990  -0.032189
     3  H    0.015263  -0.000173  -0.034262  -0.001085  -0.024475   0.276936
     4  H   -0.003828   0.000004   0.000098   0.000025   0.002207  -0.004368
     5  B   -0.022720   0.000858  -0.011906   0.007404   0.438299   0.021063
     6  P   -0.051614  -0.000134   0.004794   0.000462  -0.015384  -0.054022
     7  H    0.841236  -0.000025  -0.000145  -0.000835   0.004921   0.008025
     8  Cl  -0.000025  17.057257  -0.056050   0.008014  -0.050431   0.002512
     9  N   -0.000145  -0.056050   6.529990   0.327985  -0.056978   0.483412
    10  H   -0.000835   0.008014   0.327985   0.416030  -0.008789  -0.018600
    11  P    0.004921  -0.050431  -0.056978  -0.008789  13.936643  -0.025060
    12  Si   0.008025   0.002512   0.483412  -0.018600  -0.025060  12.562646
    13  H   -0.000014   0.000143  -0.012882   0.002332  -0.000572   0.383461
    14  H    0.000750   0.000101   0.001581  -0.000119  -0.019613  -0.001072
    15  P    0.314922   0.000042   0.000685  -0.000141   0.004834  -0.016430
    16  N   -0.047356   0.001072  -0.009468   0.003874  -0.024609   0.014018
              13         14         15         16
     1  B   -0.001060   0.353404  -0.084408  -0.029817
     2  P   -0.000999  -0.004105   0.001339  -0.003577
     3  H   -0.021116  -0.021157   0.002081  -0.004131
     4  H   -0.000005  -0.001470  -0.017744   0.001817
     5  B   -0.000198   0.002703  -0.050462   0.816406
     6  P    0.001499  -0.026867   0.368213  -0.055930
     7  H   -0.000014   0.000750   0.314922  -0.047356
     8  Cl   0.000143   0.000101   0.000042   0.001072
     9  N   -0.012882   0.001581   0.000685  -0.009468
    10  H    0.002332  -0.000119  -0.000141   0.003874
    11  P   -0.000572  -0.019613   0.004834  -0.024609
    12  Si   0.383461  -0.001072  -0.016430   0.014018
    13  H    0.664621  -0.001940   0.000533  -0.000080
    14  H   -0.001940   0.533120   0.006288  -0.000040
    15  P    0.000533   0.006288  13.945153   0.336060
    16  N   -0.000080  -0.000040   0.336060   6.519068
          Atomic-Atomic Spin Densities.
               1          2          3          4          5          6
     1  B    0.076827   0.004574   0.022134  -0.000330  -0.001669  -0.019408
     2  P    0.004574   0.030339  -0.002083  -0.000010   0.000973   0.000114
     3  H    0.022134  -0.002083  -0.040983  -0.000269  -0.003791   0.001358
     4  H   -0.000330  -0.000010  -0.000269   0.004165   0.000068  -0.001731
     5  B   -0.001669   0.000973  -0.003791   0.000068   0.009310  -0.000374
     6  P   -0.019408   0.000114   0.001358  -0.001731  -0.000374   0.051402
     7  H    0.004900   0.000173   0.002085  -0.000586  -0.000322  -0.001036
     8  Cl   0.000115  -0.006428   0.000059  -0.000000  -0.000375  -0.000059
     9  N   -0.006959   0.012123   0.002499   0.000008  -0.001062  -0.000184
    10  H   -0.000015  -0.003225   0.000101  -0.000001   0.000426  -0.000114
    11  P    0.003196  -0.002531  -0.001379   0.000083   0.000143   0.003795
    12  Si   0.009038  -0.011574  -0.026715   0.000422   0.001733   0.004694
    13  H    0.002655   0.000239   0.002701  -0.000051   0.000361  -0.000940
    14  H   -0.007506  -0.000632  -0.001215   0.000261   0.000222   0.004086
    15  P   -0.003844   0.000320   0.004683   0.000170  -0.000706  -0.005041
    16  N   -0.000484  -0.000606  -0.000581  -0.000044  -0.000468  -0.000362
               7          8          9         10         11         12
     1  B    0.004900   0.000115  -0.006959  -0.000015   0.003196   0.009038
     2  P    0.000173  -0.006428   0.012123  -0.003225  -0.002531  -0.011574
     3  H    0.002085   0.000059   0.002499   0.000101  -0.001379  -0.026715
     4  H   -0.000586  -0.000000   0.000008  -0.000001   0.000083   0.000422
     5  B   -0.000322  -0.000375  -0.001062   0.000426   0.000143   0.001733
     6  P   -0.001036  -0.000059  -0.000184  -0.000114   0.003795   0.004694
     7  H   -0.032395   0.000014   0.000466   0.000333  -0.000881  -0.020417
     8  Cl   0.000014   0.016912  -0.001195   0.000173   0.000115   0.002097
     9  N    0.000466  -0.001195  -0.024146   0.001232   0.004304  -0.012190
    10  H    0.000333   0.000173   0.001232   0.010942  -0.000680  -0.003793
    11  P   -0.000881   0.000115   0.004304  -0.000680  -0.010907  -0.008682
    12  Si  -0.020417   0.002097  -0.012190  -0.003793  -0.008682   0.991687
    13  H    0.000280   0.000149  -0.002107   0.000193  -0.000969  -0.021334
    14  H   -0.000251  -0.000030   0.000532  -0.000036   0.001098  -0.004204
    15  P    0.022135   0.000010  -0.000277   0.000002   0.000239  -0.007324
    16  N    0.002997   0.000025  -0.000217   0.000494   0.000027   0.002883
              13         14         15         16
     1  B    0.002655  -0.007506  -0.003844  -0.000484
     2  P    0.000239  -0.000632   0.000320  -0.000606
     3  H    0.002701  -0.001215   0.004683  -0.000581
     4  H   -0.000051   0.000261   0.000170  -0.000044
     5  B    0.000361   0.000222  -0.000706  -0.000468
     6  P   -0.000940   0.004086  -0.005041  -0.000362
     7  H    0.000280  -0.000251   0.022135   0.002997
     8  Cl   0.000149  -0.000030   0.000010   0.000025
     9  N   -0.002107   0.000532  -0.000277  -0.000217
    10  H    0.000193  -0.000036   0.000002   0.000494
    11  P   -0.000969   0.001098   0.000239   0.000027
    12  Si  -0.021334  -0.004204  -0.007324   0.002883
    13  H    0.040036  -0.001401   0.000151   0.000021
    14  H   -0.001401  -0.001703  -0.000054  -0.000015
    15  P    0.000151  -0.000054   0.026972  -0.002914
    16  N    0.000021  -0.000015  -0.002914  -0.002060
 Mulliken charges and spin densities:
               1          2
     1  B   -0.386470   0.083225
     2  P    0.320703   0.021767
     3  H   -0.111208  -0.041395
     4  H    0.028448   0.002154
     5  B    0.226588   0.004468
     6  P   -0.033960   0.036201
     7  H   -0.035765  -0.022505
     8  Cl  -0.210630   0.011581
     9  N   -0.460565  -0.027173
    10  H    0.275148   0.006031
    11  P    0.130341  -0.013029
    12  Si   0.420923   0.896320
    13  H   -0.013723   0.019984
    14  H    0.178439  -0.010848
    15  P    0.189035   0.034522
    16  N   -0.517305  -0.001304
 Sum of Mulliken charges =  -0.00000   1.00000
 Mulliken charges and spin densities with hydrogens summed into heavy atoms:
               1          2
     1  B   -0.319239   0.030982
     2  P    0.320703   0.021767
     5  B    0.226588   0.004468
     6  P   -0.005512   0.038355
     8  Cl  -0.210630   0.011581
     9  N   -0.185417  -0.021142
    11  P    0.130341  -0.013029
    12  Si   0.407200   0.916304
    15  P    0.153271   0.012017
    16  N   -0.517305  -0.001304
 Electronic spatial extent (au):  <R**2>=           3060.5896
 Charge=             -0.0000 electrons
 Dipole moment (field-independent basis, Debye):
    X=              0.4287    Y=              3.5966    Z=             -0.4058  Tot=              3.6448
 Quadrupole moment (field-independent basis, Debye-Ang):
   XX=           -112.8883   YY=           -100.1197   ZZ=           -108.7025
   XY=             -5.1242   XZ=              1.6723   YZ=              1.0755
 Traceless Quadrupole moment (field-independent basis, Debye-Ang):
   XX=             -5.6515   YY=              7.1171   ZZ=             -1.4656
   XY=             -5.1242   XZ=              1.6723   YZ=              1.0755
 Octapole moment (field-independent basis, Debye-Ang**2):
  XXX=             28.5016  YYY=             16.8327  ZZZ=             10.1751  XYY=              8.5130
  XXY=             10.9726  XXZ=             -0.9219  XZZ=             20.5875  YZZ=              6.7086
  YYZ=              7.1827  XYZ=             -0.6901
 Hexadecapole moment (field-independent basis, Debye-Ang**3):
 XXXX=          -2830.9300 YYYY=           -882.9164 ZZZZ=           -771.3103 XXXY=            -71.3925
 XXXZ=             25.1842 YYYX=            -25.9198 YYYZ=             -6.2767 ZZZX=             23.6374
 ZZZY=             13.9469 XXYY=           -625.7451 XXZZ=           -610.1109 YYZZ=           -291.5855
 XXYZ=             -9.7318 YYXZ=              3.8919 ZZXY=            -21.3989
 N-N= 1.093439743779D+03 E-N=-7.598054736856D+03  KE= 2.273669229913D+03
                          Isotropic Fermi Contact Couplings
        Atom                 a.u.       MegaHertz       Gauss      10(-4) cm-1
     1  B(11)             -0.00249      -3.56819      -1.27322      -1.19022
     2  P(31)              0.07739     140.15362      50.01030      46.75022
     3  H(1)               0.01123      50.20961      17.91604      16.74812
     4  H(1)               0.00099       4.42103       1.57753       1.47470
     5  B(11)             -0.00007      -0.10537      -0.03760      -0.03515
     6  P(31)              0.03478      62.99351      22.47765      21.01237
     7  H(1)               0.00185       8.27386       2.95232       2.75986
     8  Cl(35)             0.00238       1.04300       0.37217       0.34791
     9  N(14)              0.03787      12.23636       4.36624       4.08161
    10  H(1)               0.00178       7.95260       2.83769       2.65270
    11  P(31)              0.00004       0.07791       0.02780       0.02599
    12  Si(29)             0.93207    -828.35703    -295.57839    -276.31016
    13  H(1)               0.01872      83.67038      29.85567      27.90943
    14  H(1)               0.00129       5.77404       2.06032       1.92601
    15  P(31)             -0.00324      -5.87006      -2.09458      -1.95804
    16  N(14)             -0.00135      -0.43601      -0.15558      -0.14544
 PrsmSu:  requested number of processors reduced to:  19 ShMem   1 Linda.
 --------------------------------------------------------
       Center         ----  Spin Dipole Couplings  ----
                      3XX-RR        3YY-RR        3ZZ-RR
 --------------------------------------------------------
     1   Atom       -0.012895      0.012801      0.000094
     2   Atom       -0.019011     -0.017708      0.036718
     3   Atom       -0.004144      0.001445      0.002699
     4   Atom        0.001551     -0.000062     -0.001489
     5   Atom       -0.002088      0.005314     -0.003225
     6   Atom       -0.017538      0.056508     -0.038970
     7   Atom        0.003150      0.003852     -0.007002
     8   Atom        0.022760      0.037749     -0.060509
     9   Atom       -0.005994      0.009932     -0.003939
    10   Atom       -0.001838      0.005152     -0.003314
    11   Atom        0.008341      0.003925     -0.012266
    12   Atom       -0.173245     -0.265284      0.438529
    13   Atom       -0.010682      0.006357      0.004325
    14   Atom       -0.004077      0.001295      0.002782
    15   Atom       -0.029850      0.057455     -0.027604
    16   Atom       -0.000935     -0.001295      0.002230
 --------------------------------------------------------
                        XY            XZ            YZ
 --------------------------------------------------------
     1   Atom        0.013767      0.010840      0.024292
     2   Atom        0.001021     -0.027015      0.022270
     3   Atom        0.003425     -0.002961      0.016203
     4   Atom        0.001073      0.002074      0.000764
     5   Atom        0.001396     -0.000000     -0.000763
     6   Atom        0.075391      0.042269      0.055932
     7   Atom        0.010701     -0.004731     -0.004434
     8   Atom       -0.081806      0.018513     -0.019278
     9   Atom       -0.051268     -0.026056      0.013171
    10   Atom       -0.007871      0.004061     -0.007871
    11   Atom       -0.027000     -0.007767     -0.002930
    12   Atom       -0.493983     -0.796086      0.698201
    13   Atom        0.002984     -0.009444     -0.008395
    14   Atom        0.002819      0.001015      0.000713
    15   Atom        0.059418      0.025613      0.046519
    16   Atom       -0.000956      0.000432     -0.001192
 --------------------------------------------------------


 ---------------------------------------------------------------------------------
              Anisotropic Spin Dipole Couplings in Principal Axis System
 ---------------------------------------------------------------------------------

       Atom             a.u.   MegaHertz   Gauss  10(-4) cm-1        Axes

              Baa    -0.0190    -3.259    -1.163    -1.087  0.8717 -0.0030 -0.4901
     1 B(11)  Bbb    -0.0186    -3.184    -1.136    -1.062 -0.3645  0.6645 -0.6523
              Bcc     0.0376     6.443     2.299     2.149  0.3276  0.7473  0.5782
 
              Baa    -0.0363    -7.845    -2.799    -2.617  0.7090 -0.5572  0.4323
     2 P(31)  Bbb    -0.0172    -3.724    -1.329    -1.242  0.6222  0.7828 -0.0116
              Bcc     0.0535    11.568     4.128     3.859 -0.3320  0.2772  0.9016
 
              Baa    -0.0159    -8.475    -3.024    -2.827 -0.3594  0.6743 -0.6451
     3 H(1)   Bbb    -0.0024    -1.283    -0.458    -0.428  0.9331  0.2515 -0.2570
              Bcc     0.0183     9.759     3.482     3.255  0.0111  0.6944  0.7195
 
              Baa    -0.0026    -1.365    -0.487    -0.455 -0.4299 -0.0900  0.8984
     4 H(1)   Bbb    -0.0006    -0.307    -0.110    -0.102 -0.3782  0.9215 -0.0887
              Bcc     0.0031     1.672     0.597     0.558  0.8198  0.3779  0.4302
 
              Baa    -0.0033    -0.566    -0.202    -0.189 -0.1226  0.1072  0.9867
     5 B(11)  Bbb    -0.0023    -0.398    -0.142    -0.133  0.9765 -0.1646  0.1392
              Bcc     0.0056     0.964     0.344     0.322  0.1773  0.9805 -0.0845
 
              Baa    -0.0720   -15.571    -5.556    -5.194 -0.6756  0.0772  0.7332
     6 P(31)  Bbb    -0.0600   -12.970    -4.628    -4.326 -0.5421  0.6220 -0.5650
              Bcc     0.1320    28.541    10.184     9.520  0.4997  0.7792  0.3784
 
              Baa    -0.0089    -4.737    -1.690    -1.580  0.3134  0.0665  0.9473
     7 H(1)   Bbb    -0.0072    -3.816    -1.361    -1.273 -0.6709  0.7215  0.1713
              Bcc     0.0160     8.553     3.052     2.853  0.6721  0.6892 -0.2707
 
              Baa    -0.0646    -3.380    -1.206    -1.127 -0.1396  0.0744  0.9874
     8 Cl(35) Bbb    -0.0519    -2.714    -0.968    -0.905  0.7319  0.6794  0.0522
              Bcc     0.1164     6.094     2.175     2.033 -0.6670  0.7300 -0.1493
 
              Baa    -0.0529    -2.040    -0.728    -0.681  0.7745  0.5782  0.2566
     9 N(14)  Bbb    -0.0117    -0.452    -0.161    -0.151  0.0396 -0.4492  0.8926
              Bcc     0.0646     2.492     0.889     0.831 -0.6313  0.6811  0.3708
 
              Baa    -0.0082    -4.359    -1.555    -1.454  0.2641  0.6015  0.7539
    10 H(1)   Bbb    -0.0064    -3.436    -1.226    -1.146  0.8402  0.2404 -0.4861
              Bcc     0.0146     7.795     2.781     2.600 -0.4737  0.7618 -0.4419
 
              Baa    -0.0253    -5.463    -1.949    -1.822  0.6091  0.6138  0.5022
    11 P(31)  Bbb    -0.0083    -1.787    -0.638    -0.596 -0.2841 -0.4223  0.8608
              Bcc     0.0335     7.249     2.587     2.418  0.7404 -0.6670 -0.0829
 
              Baa    -0.7246    76.866    27.428    25.640  0.8582  0.3440  0.3809
    12 Si(29) Bbb    -0.6950    73.728    26.308    24.593 -0.0799  0.8227 -0.5629
              Bcc     1.4196  -150.594   -53.736   -50.233 -0.5070  0.4526  0.7335
 
              Baa    -0.0153    -8.159    -2.911    -2.721  0.8909  0.0522  0.4512
    13 H(1)   Bbb    -0.0013    -0.688    -0.245    -0.229 -0.3318  0.7532  0.5680
              Bcc     0.0166     8.846     3.157     2.951 -0.3102 -0.6558  0.6883
 
              Baa    -0.0053    -2.848    -1.016    -0.950  0.9204 -0.3824 -0.0814
    14 H(1)   Bbb     0.0016     0.856     0.305     0.286  0.2430  0.7227 -0.6470
              Bcc     0.0037     1.992     0.711     0.664  0.3063  0.5757  0.7581
 
              Baa    -0.0602   -13.010    -4.642    -4.340  0.9049 -0.4037 -0.1350
    15 P(31)  Bbb    -0.0481   -10.396    -3.709    -3.468 -0.0349 -0.3866  0.9216
              Bcc     0.1083    23.405     8.352     7.807  0.4242  0.8292  0.3639
 
              Baa    -0.0022    -0.085    -0.030    -0.028  0.5598  0.8122  0.1641
    16 N(14)  Bbb    -0.0005    -0.021    -0.007    -0.007  0.8058 -0.4876 -0.3360
              Bcc     0.0027     0.105     0.038     0.035  0.1929 -0.3203  0.9275
 

 ---------------------------------------------------------------------------------

 PrsmSu:  requested number of processors reduced to:  19 ShMem   1 Linda.
 No NMR shielding tensors so no spin-rotation constants.
 Leave Link  601 at Sat Apr 17 04:17:27 2021, MaxMem=   104857600 cpu:            1127.6 elap:              24.5
 (Enter /s/ls4/users/knvvv/bin/g16sse/l9999.exe)

 Test job not archived.
 1\1\GINC-N146\Stability\UM062X\def2QZVP\B2Cl1H6N2P4Si1(2)\KNVVV\17-Apr
 -2021\0\\#P M062X/Def2QZVP Integral=UltraFineGrid SCF=NoSymm Stable=(R
 Ext, Opt) IOp(1/33=1)\\Database calculations.\\0,2\B,0,0.3619143,0.114
 7224,-1.4893219\P,0,-1.4139587,-2.1047696,0.0185082\H,0,1.0706589,-0.0
 849227,-0.2221517\H,0,2.2554815,1.9335334,-1.4914157\B,0,-1.4836977,0.
 9779012,0.0799444\P,0,0.8377777,1.9954198,-1.5146643\H,0,1.3952821,1.6
 570762,1.1860971\Cl,0,-3.3185357,-2.0768666,0.8602444\N,0,-0.4899881,-
 1.5581686,1.3791226\H,0,-0.950044,-0.8299702,1.9342252\P,0,-1.5952605,
 -0.2526724,-1.2956059\Si,0,1.154926,-1.1827374,0.9404806\H,0,1.7254778
 ,-2.402878,0.3027122\H,0,0.9194185,-0.6278918,-2.2440464\P,0,0.4995713
 ,2.6433759,0.6270816\N,0,-0.9690236,1.7988484,0.9287898\\Version=ES64L
 -G16RevA.03\State=2-A\HF=-2277.9810862\S2=0.755415\S2-1=0.\S2A=0.75001
 8\RMSD=7.832e-09\Dipole=1.0514969,-0.8865215,0.4058009\Quadrupole=5.36
 92112,-5.4678282,0.098617,-2.364974,2.2515469,-0.2987426\PG=C01 [X(B2C
 l1H6N2P4Si1)]\\@


 A MAN IS EXACTLY AS GREAT AS THE TIDE SURGING
 BENEATH HIM.      - BISMARCK
 Job cpu time:       2 days 12 hours 14 minutes 26.1 seconds.
 Elapsed time:       0 days  2 hours 53 minutes  5.1 seconds.
 File lengths (MBytes):  RWF=   2038 Int=      0 D2E=      0 Chk=     92 Scr=      1
 Normal termination of Gaussian 16 at Sat Apr 17 04:17:28 2021.
