 Entering Gaussian System, Link 0=/s/ls4/users/knvvv/bin/g16sse/g16
 Input=data/database/M062X--def2-QZVP--ADIM6_AM6.gjf
 Output=data/database/M062X--def2-QZVP--ADIM6_AM6.log
 Initial command:
 /s/ls4/users/knvvv/bin/g16sse/l1.exe "/s/ls4/users/knvvv/bin/scratch/Gau-45122.inp" -scrdir="/s/ls4/users/knvvv/bin/scratch/"
 Entering Link 1 = /s/ls4/users/knvvv/bin/g16sse/l1.exe PID=     45123.
  
 Copyright (c) 1988,1990,1992,1993,1995,1998,2003,2009,2016,
            Gaussian, Inc.  All Rights Reserved.
  
 This is part of the Gaussian(R) 16 program.  It is based on
 the Gaussian(R) 09 system (copyright 2009, Gaussian, Inc.),
 the Gaussian(R) 03 system (copyright 2003, Gaussian, Inc.),
 the Gaussian(R) 98 system (copyright 1998, Gaussian, Inc.),
 the Gaussian(R) 94 system (copyright 1995, Gaussian, Inc.),
 the Gaussian 92(TM) system (copyright 1992, Gaussian, Inc.),
 the Gaussian 90(TM) system (copyright 1990, Gaussian, Inc.),
 the Gaussian 88(TM) system (copyright 1988, Gaussian, Inc.),
 the Gaussian 86(TM) system (copyright 1986, Carnegie Mellon
 University), and the Gaussian 82(TM) system (copyright 1983,
 Carnegie Mellon University). Gaussian is a federally registered
 trademark of Gaussian, Inc.
  
 This software contains proprietary and confidential information,
 including trade secrets, belonging to Gaussian, Inc.
  
 This software is provided under written license and may be
 used, copied, transmitted, or stored only in accord with that
 written license.
  
 The following legend is applicable only to US Government
 contracts under FAR:
  
                    RESTRICTED RIGHTS LEGEND
  
 Use, reproduction and disclosure by the US Government is
 subject to restrictions as set forth in subparagraphs (a)
 and (c) of the Commercial Computer Software - Restricted
 Rights clause in FAR 52.227-19.
  
 Gaussian, Inc.
 340 Quinnipiac St., Bldg. 40, Wallingford CT 06492
  
  
 ---------------------------------------------------------------
 Warning -- This program may not be used in any manner that
 competes with the business of Gaussian, Inc. or will provide
 assistance to any competitor of Gaussian, Inc.  The licensee
 of this program is prohibited from giving any competitor of
 Gaussian, Inc. access to this program.  By using this program,
 the user acknowledges that Gaussian, Inc. is engaged in the
 business of creating and licensing software in the field of
 computational chemistry and represents and warrants to the
 licensee that it is not a competitor of Gaussian, Inc. and that
 it will not use this program in any manner prohibited above.
 ---------------------------------------------------------------
  

 Cite this work as:
 Gaussian 16, Revision A.03,
 M. J. Frisch, G. W. Trucks, H. B. Schlegel, G. E. Scuseria, 
 M. A. Robb, J. R. Cheeseman, G. Scalmani, V. Barone, 
 G. A. Petersson, H. Nakatsuji, X. Li, M. Caricato, A. V. Marenich, 
 J. Bloino, B. G. Janesko, R. Gomperts, B. Mennucci, H. P. Hratchian, 
 J. V. Ortiz, A. F. Izmaylov, J. L. Sonnenberg, D. Williams-Young, 
 F. Ding, F. Lipparini, F. Egidi, J. Goings, B. Peng, A. Petrone, 
 T. Henderson, D. Ranasinghe, V. G. Zakrzewski, J. Gao, N. Rega, 
 G. Zheng, W. Liang, M. Hada, M. Ehara, K. Toyota, R. Fukuda, 
 J. Hasegawa, M. Ishida, T. Nakajima, Y. Honda, O. Kitao, H. Nakai, 
 T. Vreven, K. Throssell, J. A. Montgomery, Jr., J. E. Peralta, 
 F. Ogliaro, M. J. Bearpark, J. J. Heyd, E. N. Brothers, K. N. Kudin, 
 V. N. Staroverov, T. A. Keith, R. Kobayashi, J. Normand, 
 K. Raghavachari, A. P. Rendell, J. C. Burant, S. S. Iyengar, 
 J. Tomasi, M. Cossi, J. M. Millam, M. Klene, C. Adamo, R. Cammi, 
 J. W. Ochterski, R. L. Martin, K. Morokuma, O. Farkas, 
 J. B. Foresman, and D. J. Fox, Gaussian, Inc., Wallingford CT, 2016.
 
 ******************************************
 Gaussian 16:  ES64L-G16RevA.03 25-Dec-2016
                16-Apr-2021 
 ******************************************
 %RWF=temp15_50121,70GB
 %nprocshared=48
 Will use up to   48 processors via shared memory.
 Default route: MaxDisk=80GB
 ----------------------------------------------------------------------
 #P M062X/Def2QZVP Integral=UltraFineGrid SCF=NoSymm Stable=(RExt, Opt)
  IOp(1/33=1)
 ----------------------------------------------------------------------
 1/33=1,38=1,172=1/1;
 2/12=2,17=6,18=5,40=1/2;
 3/5=45,7=101,11=2,25=1,30=1,74=-55,75=-5/1,2,3;
 4/9=2/1;
 5/5=2,38=5/2;
 6/7=2,8=2,9=2,10=2,28=1/1;
 8/6=1,10=90,11=11/1;
 9/8=-3,42=1,46=1/14;
 5/5=2,8=3,17=40,38=5/8(-2);
 6/7=2,8=2,9=2,10=2,28=1/1;
 99/5=1,9=1/99;
 Leave Link    1 at Fri Apr 16 22:52:19 2021, MaxMem=           0 cpu:              10.4 elap:               0.2
 (Enter /s/ls4/users/knvvv/bin/g16sse/l101.exe)
 ONIOM data not found on unit 2.
 ----------------------
 Database calculations.
 ----------------------
 TstMul:  ICh=     0
 TstMul:  Mul=     1
 TstMul:  ICh=     0
 TstMul:  Mul=     1
 Symbolic Z-matrix:
 Charge =  0 Multiplicity = 1
 C                     0.64555  -0.40756   0. 
 C                    -0.64555   0.40756   0. 
 C                     1.90524   0.45555   0. 
 C                    -1.90524  -0.45555   0. 
 C                     3.18887  -0.37046   0. 
 C                    -3.18887   0.37046   0. 
 H                     0.65879  -1.06668   0.8788 
 H                     0.65879  -1.06668  -0.8788 
 H                    -0.65879   1.06668   0.8788 
 H                    -0.65879   1.06668  -0.8788 
 H                     1.89041   1.11346  -0.87801 
 H                     1.89041   1.11346   0.87801 
 H                    -1.89041  -1.11346  -0.87801 
 H                    -1.89041  -1.11346   0.87801 
 H                     4.0769    0.26853   0. 
 H                     3.23779  -1.01383  -0.88405 
 H                     3.23779  -1.01383   0.88405 
 H                    -4.0769   -0.26853   0. 
 H                    -3.23779   1.01383  -0.88405 
 H                    -3.23779   1.01383   0.88405 
 
 RdStrC is calling ZToCFu for IStruc=1 NZ=    20.
 PrtBox:  NBox=     2 Levels=  2 BoxLen=    8.00 SMaxX=       15.41
          Shift=            7.704220            2.104139            1.670610
 Box      1 Number                   0 centers from      1 to     10:
 Box      2 Number                   4 centers from     11 to     20:
 After GenITR:
 ITRead=  0  0  0  0  0  0  0  0  0  0  0  0  0  0  0  0  0  0  0  0
 MicOpt= -1 -1 -1 -1 -1 -1 -1 -1 -1 -1 -1 -1 -1 -1 -1 -1 -1 -1 -1 -1
 ITRead=  0  0  0  0  0  0  0  0  0  0  0  0  0  0  0  0  0  0  0  0
 MicOpt= -1 -1 -1 -1 -1 -1 -1 -1 -1 -1 -1 -1 -1 -1 -1 -1 -1 -1 -1 -1
 NAtoms=     20 NQM=       20 NQMF=       0 NMMI=      0 NMMIF=      0
                NMic=       0 NMicF=      0.
                    Isotopes and Nuclear Properties:
 (Nuclear quadrupole moments (NQMom) in fm**2, nuclear magnetic moments (NMagM)
  in nuclear magnetons)

  Atom         1           2           3           4           5           6           7           8           9          10
 IAtWgt=          12          12          12          12          12          12           1           1           1           1
 AtmWgt=  12.0000000  12.0000000  12.0000000  12.0000000  12.0000000  12.0000000   1.0078250   1.0078250   1.0078250   1.0078250
 NucSpn=           0           0           0           0           0           0           1           1           1           1
 AtZEff=  -0.0000000  -0.0000000  -0.0000000  -0.0000000  -0.0000000  -0.0000000  -0.0000000  -0.0000000  -0.0000000  -0.0000000
 NQMom=    0.0000000   0.0000000   0.0000000   0.0000000   0.0000000   0.0000000   0.0000000   0.0000000   0.0000000   0.0000000
 NMagM=    0.0000000   0.0000000   0.0000000   0.0000000   0.0000000   0.0000000   2.7928460   2.7928460   2.7928460   2.7928460
 AtZNuc=   6.0000000   6.0000000   6.0000000   6.0000000   6.0000000   6.0000000   1.0000000   1.0000000   1.0000000   1.0000000

  Atom        11          12          13          14          15          16          17          18          19          20
 IAtWgt=           1           1           1           1           1           1           1           1           1           1
 AtmWgt=   1.0078250   1.0078250   1.0078250   1.0078250   1.0078250   1.0078250   1.0078250   1.0078250   1.0078250   1.0078250
 NucSpn=           1           1           1           1           1           1           1           1           1           1
 AtZEff=  -0.0000000  -0.0000000  -0.0000000  -0.0000000  -0.0000000  -0.0000000  -0.0000000  -0.0000000  -0.0000000  -0.0000000
 NQMom=    0.0000000   0.0000000   0.0000000   0.0000000   0.0000000   0.0000000   0.0000000   0.0000000   0.0000000   0.0000000
 NMagM=    2.7928460   2.7928460   2.7928460   2.7928460   2.7928460   2.7928460   2.7928460   2.7928460   2.7928460   2.7928460
 AtZNuc=   1.0000000   1.0000000   1.0000000   1.0000000   1.0000000   1.0000000   1.0000000   1.0000000   1.0000000   1.0000000
 No MM parameters found.
 Leave Link  101 at Fri Apr 16 22:52:19 2021, MaxMem=   104857600 cpu:               7.5 elap:               0.2
 (Enter /s/ls4/users/knvvv/bin/g16sse/l202.exe)
                          Input orientation:                          
 ---------------------------------------------------------------------
 Center     Atomic      Atomic             Coordinates (Angstroms)
 Number     Number       Type             X           Y           Z
 ---------------------------------------------------------------------
      1          6           0        0.645551   -0.407563    0.000000
      2          6           0       -0.645551    0.407563    0.000000
      3          6           0        1.905245    0.455548    0.000000
      4          6           0       -1.905245   -0.455548    0.000000
      5          6           0        3.188872   -0.370459    0.000000
      6          6           0       -3.188872    0.370459    0.000000
      7          1           0        0.658791   -1.066678    0.878796
      8          1           0        0.658791   -1.066678   -0.878796
      9          1           0       -0.658791    1.066678    0.878796
     10          1           0       -0.658791    1.066678   -0.878796
     11          1           0        1.890410    1.113462   -0.878009
     12          1           0        1.890410    1.113462    0.878009
     13          1           0       -1.890410   -1.113462   -0.878009
     14          1           0       -1.890410   -1.113462    0.878009
     15          1           0        4.076897    0.268530    0.000000
     16          1           0        3.237787   -1.013830   -0.884049
     17          1           0        3.237787   -1.013830    0.884049
     18          1           0       -4.076897   -0.268530    0.000000
     19          1           0       -3.237787    1.013830   -0.884049
     20          1           0       -3.237787    1.013830    0.884049
 ---------------------------------------------------------------------
                    Distance matrix (angstroms):
                    1          2          3          4          5
     1  C    0.000000
     2  C    1.526885   0.000000
     3  C    1.527020   2.551247   0.000000
     4  C    2.551247   1.527020   3.917898   0.000000
     5  C    2.543592   3.912559   1.526430   5.094827   0.000000
     6  C    3.912559   2.543592   5.094827   1.526430   6.420637
     7  H    1.098586   2.155685   2.154786   2.778497   2.767366
     8  H    1.098586   2.155685   2.154786   2.778497   2.767366
     9  H    2.155685   1.098586   2.778497   2.154786   4.200257
    10  H    2.155685   1.098586   2.778497   2.154786   4.200257
    11  H    2.152694   2.774940   1.097256   4.199963   2.158455
    12  H    2.152694   2.774940   1.097256   4.199963   2.158455
    13  H    2.774940   2.152694   4.199963   1.097256   5.207884
    14  H    2.774940   2.152694   4.199963   1.097256   5.207884
    15  H    3.497319   4.724495   2.179691   6.025804   1.094028
    16  H    2.805136   4.228737   2.171701   5.248238   1.094468
    17  H    2.805136   4.228737   2.171701   5.248238   1.094468
    18  H    4.724495   3.497319   6.025804   2.179691   7.266485
    19  H    4.228737   2.805136   5.248238   2.171701   6.633231
    20  H    4.228737   2.805136   5.248238   2.171701   6.633231
                    6          7          8          9         10
     6  C    0.000000
     7  H    4.200257   0.000000
     8  H    4.200257   1.757592   0.000000
     9  H    2.767366   2.507436   3.062085   0.000000
    10  H    2.767366   3.062085   2.507436   1.757592   0.000000
    11  H    5.207884   3.058800   2.503977   3.096284   2.549630
    12  H    5.207884   2.503977   3.058800   2.549630   3.096284
    13  H    2.158455   3.096284   2.549630   3.058800   2.503977
    14  H    2.158455   2.549630   3.096284   2.503977   3.058800
    15  H    7.266485   3.773396   3.773396   4.882220   4.882220
    16  H    6.633231   3.124361   2.579543   4.755992   4.417224
    17  H    6.633231   2.579543   3.124361   4.417224   4.755992
    18  H    1.094028   4.882220   4.882220   3.773396   3.773396
    19  H    1.094468   4.755992   4.417224   3.124361   2.579543
    20  H    1.094468   4.417224   4.755992   2.579543   3.124361
                   11         12         13         14         15
    11  H    0.000000
    12  H    1.756017   0.000000
    13  H    4.387914   4.726244   0.000000
    14  H    4.726244   4.387914   1.756017   0.000000
    15  H    2.503106   2.503106   6.187856   6.187856   0.000000
    16  H    2.518102   3.073377   5.129168   5.423391   1.769208
    17  H    3.073377   2.518102   5.423391   5.129168   1.769208
    18  H    6.187856   6.187856   2.503106   2.503106   8.171463
    19  H    5.129168   5.423391   2.518102   3.073377   7.405513
    20  H    5.423391   5.129168   3.073377   2.518102   7.405513
                   16         17         18         19         20
    16  H    0.000000
    17  H    1.768097   0.000000
    18  H    7.405513   7.405513   0.000000
    19  H    6.785608   7.012178   1.769208   0.000000
    20  H    7.012178   6.785608   1.769208   1.768097   0.000000
 Stoichiometry    C6H14
 Framework group  C2H[SGH(C6H2),X(H12)]
 Deg. of freedom    16
 Full point group                 C2H     NOp   4
 Largest Abelian subgroup         C2H     NOp   4
 Largest concise Abelian subgroup C2H     NOp   4
                         Standard orientation:                         
 ---------------------------------------------------------------------
 Center     Atomic      Atomic             Coordinates (Angstroms)
 Number     Number       Type             X           Y           Z
 ---------------------------------------------------------------------
      1          6           0       -0.006598    0.763414    0.000000
      2          6           0        0.006598   -0.763414    0.000000
      3          6           0       -1.414084    1.355672    0.000000
      4          6           0        1.414084   -1.355672    0.000000
      5          6           0       -1.414084    2.882102    0.000000
      6          6           0        1.414084   -2.882102    0.000000
      7          1           0        0.540511    1.131219    0.878796
      8          1           0        0.540511    1.131219   -0.878796
      9          1           0       -0.540511   -1.131219    0.878796
     10          1           0       -0.540511   -1.131219   -0.878796
     11          1           0       -1.959319    0.987175   -0.878009
     12          1           0       -1.959319    0.987175    0.878009
     13          1           0        1.959319   -0.987175   -0.878009
     14          1           0        1.959319   -0.987175    0.878009
     15          1           0       -2.431976    3.283092    0.000000
     16          1           0       -0.899521    3.271388   -0.884049
     17          1           0       -0.899521    3.271388    0.884049
     18          1           0        2.431976   -3.283092    0.000000
     19          1           0        0.899521   -3.271388   -0.884049
     20          1           0        0.899521   -3.271388    0.884049
 ---------------------------------------------------------------------
 Rotational constants (GHZ):          14.6056790           1.1398574           1.1004955
 Leave Link  202 at Fri Apr 16 22:52:19 2021, MaxMem=   104857600 cpu:               7.0 elap:               0.2
 (Enter /s/ls4/users/knvvv/bin/g16sse/l301.exe)
 Standard basis: def2QZVP (5D, 7F)
 Ernie: Thresh=  0.10000D-02 Tol=  0.10000D-05 Strict=F.
 There are   273 symmetry adapted cartesian basis functions of AG  symmetry.
 There are   188 symmetry adapted cartesian basis functions of BG  symmetry.
 There are   188 symmetry adapted cartesian basis functions of AU  symmetry.
 There are   273 symmetry adapted cartesian basis functions of BU  symmetry.
 There are   221 symmetry adapted basis functions of AG  symmetry.
 There are   160 symmetry adapted basis functions of BG  symmetry.
 There are   160 symmetry adapted basis functions of AU  symmetry.
 There are   221 symmetry adapted basis functions of BU  symmetry.
   762 basis functions,  1084 primitive gaussians,   922 cartesian basis functions
    25 alpha electrons       25 beta electrons
       nuclear repulsion energy       244.2758588205 Hartrees.
 IExCor= 4336 DFT=T Ex+Corr=M062X ExCW=0 ScaHFX=  0.540000
 ScaDFX=  1.000000  1.000000  1.000000  1.000000 ScalE2=  1.000000  1.000000
 IRadAn=      5 IRanWt=     -1 IRanGd=            0 ICorTp=0 IEmpDi=  4
 NAtoms=   20 NActive=   20 NUniq=    7 SFac= 4.00D+00 NAtFMM=   60 NAOKFM=F Big=F
 Integral buffers will be    131072 words long.
 Raffenetti 2 integral format.
 Two-electron integral symmetry is turned on.
 Leave Link  301 at Fri Apr 16 22:52:19 2021, MaxMem=   104857600 cpu:               6.5 elap:               0.2
 (Enter /s/ls4/users/knvvv/bin/g16sse/l302.exe)
 NPDir=0 NMtPBC=     1 NCelOv=     1 NCel=       1 NClECP=     1 NCelD=      1
         NCelK=      1 NCelE2=     1 NClLst=     1 CellRange=     0.0.
 One-electron integrals computed using PRISM.
 One-electron integral symmetry used in STVInt
 PrsmSu:  requested number of processors reduced to:   4 ShMem   1 Linda.
 PrsmSu:  requested number of processors reduced to:  18 ShMem   1 Linda.
   4 Symmetry operations used in ECPInt.
 ECPInt:  NShTT=   29403 NPrTT=   63864 LenC2=   27014 LenP2D=   48859.
 LDataN:  DoStor=T MaxTD1= 8 Len=  415
 Number of processors reduced to  10 by ecpmxn.
 NBasis=   762 RedAO= T EigKep=  2.99D-05  NBF=   221   160   160   221
 NBsUse=   762 1.00D-06 EigRej= -1.00D+00 NBFU=   221   160   160   221
 Precomputing XC quadrature grid using
 IXCGrd= 4 IRadAn=           5 IRanWt=          -1 IRanGd=           0 AccXCQ= 0.00D+00.
 Generated NRdTot=       0 NPtTot=           0 NUsed=           0 NTot=          32
 NSgBfM=   916   916   916   916   916 MxSgAt=    20 MxSgA2=    20.
 Leave Link  302 at Fri Apr 16 22:52:56 2021, MaxMem=   104857600 cpu:            1701.1 elap:              36.3
 (Enter /s/ls4/users/knvvv/bin/g16sse/l303.exe)
 DipDrv:  MaxL=1.
 Leave Link  303 at Fri Apr 16 22:53:02 2021, MaxMem=   104857600 cpu:             308.7 elap:               6.6
 (Enter /s/ls4/users/knvvv/bin/g16sse/l401.exe)
 SCF N**3 symmetry information disabled.
 ExpMin= 7.60D-02 ExpMax= 6.70D+04 ExpMxC= 6.47D+02 IAcc=3 IRadAn=         5 AccDes= 0.00D+00
 Harris functional with IExCor= 1009 and IRadAn=       5 diagonalized for initial guess.
 HarFok:  IExCor= 1009 AccDes= 0.00D+00 IRadAn=         5 IDoV= 1 UseB2=F ITyADJ=14
 ICtDFT=  3500011 ScaDFX=  1.000000  1.000000  1.000000  1.000000
 CalDSu:  requested number of processors reduced to:  46 ShMem   1 Linda.
 FoFCou: FMM=F IPFlag=           0 FMFlag=      100000 FMFlg1=           0
         NFxFlg=           0 DoJE=T BraDBF=F KetDBF=T FulRan=T
         wScrn=  0.000000 ICntrl=       500 IOpCl=  0 I1Cent=   200000004 NGrid=           0
         NMat0=    1 NMatS0=      1 NMatT0=    0 NMatD0=    1 NMtDS0=    0 NMtDT0=    0
 Petite list used in FoFCou.
 CoulSu:  requested number of processors reduced to:  16 ShMem   1 Linda.
 CoulSu:  requested number of processors reduced to:  17 ShMem   1 Linda.
 CoulSu:  requested number of processors reduced to:  21 ShMem   1 Linda.
 CoulSu:  requested number of processors reduced to:  21 ShMem   1 Linda.
 Harris En= -237.074682965196    
 JPrj=0 DoOrth=F DoCkMO=F.
 Initial guess orbital symmetries:
       Occupied  (BU) (AG) (AG) (BU) (AG) (BU) (AG) (BU) (AG) (BU)
                 (AG) (BU) (AU) (AG) (BG) (BU) (AU) (BU) (AG) (BG)
                 (BU) (AG) (AG) (AU) (BG)
       Virtual   (AG) (BU) (AU) (BU) (AG) (BU) (AG) (BG) (BU) (AG)
                 (BG) (AU) (BU) (BG) (AG) (BU) (AU) (AG) (AG) (BU)
                 (AU) (BG) (BU) (BU) (AU) (AG) (BG) (AG) (BU) (BU)
                 (AU) (AU) (AG) (AG) (BU) (BG) (BU) (AG) (BG) (BU)
                 (AU) (AG) (BG) (BU) (AG) (AG) (AU) (BG) (AG) (BU)
                 (BU) (BU) (AG) (BG) (BU) (AU) (AG) (AU) (AG) (BU)
                 (AG) (BU) (AU) (BU) (AG) (AG) (BG) (BG) (BU) (AU)
                 (BU) (AG) (BU) (AU) (BG) (AG) (BG) (AG) (AU) (AU)
                 (BG) (AG) (BG) (AU) (BU) (AG) (BG) (BU) (BU) (BG)
                 (AU) (BU) (AG) (BG) (AU) (BU) (BG) (BU) (AG) (AG)
                 (BU) (AG) (AU) (AG) (BU) (AU) (BU) (BG) (AU) (AG)
                 (AG) (BU) (BG) (AG) (AU) (BU) (AG) (AG) (BG) (BU)
                 (BU) (AU) (BG) (AG) (AU) (BU) (BU) (AG) (AG) (BU)
                 (AG) (BG) (AG) (BU) (AU) (BG) (AG) (BG) (BU) (AU)
                 (BU) (AU) (AG) (BG) (BU) (AU) (BU) (BG) (AG) (BU)
                 (AU) (BG) (AG) (BU) (AG) (AU) (BG) (BU) (AG) (AG)
                 (BU) (BU) (AG) (BG) (AU) (AG) (BU) (AU) (BG) (AG)
                 (AG) (AU) (BU) (BG) (AU) (AG) (BG) (BU) (AG) (BU)
                 (AU) (BU) (BG) (BG) (AG) (AU) (AU) (BG) (BU) (AU)
                 (BU) (AG) (AU) (BU) (BG) (AG) (BG) (AU) (AG) (BU)
                 (AU) (AG) (BG) (BU) (AU) (AG) (BU) (BG) (AG) (BG)
                 (BU) (BG) (AU) (AG) (BU) (BU) (AG) (AU) (BU) (AU)
                 (AG) (BU) (AG) (BG) (BU) (BG) (AU) (AG) (BG) (AG)
                 (BG) (BU) (AU) (AG) (BU) (AU) (AG) (BG) (BU) (AU)
                 (BG) (BU) (BU) (AG) (AG) (AU) (BG) (BU) (AU) (AG)
                 (BG) (BU) (AG) (AG) (BU) (AU) (BG) (AG) (AU) (AG)
                 (BU) (BU) (BG) (AG) (AG) (AU) (BU) (BG) (BU) (AU)
                 (BG) (AU) (BG) (BU) (BU) (AU) (AG) (BG) (AG) (BU)
                 (AU) (AG) (AU) (BU) (BG) (AG) (BU) (AG) (BU) (BG)
                 (AG) (BG) (AU) (AU) (AG) (BG) (BU) (AU) (BU) (AG)
                 (AG) (BG) (BG) (AG) (BU) (AU) (AG) (BU) (BU) (AG)
                 (AU) (BU) (AG) (BU) (BG) (AU) (AG) (BU) (AG) (BU)
                 (BG) (AG) (AU) (AG) (BU) (BG) (BU) (AU) (AG) (BU)
                 (BG) (AG) (AU) (BG) (AG) (AU) (BG) (BU) (AG) (BU)
                 (AG) (AU) (BG) (BU) (BG) (AG) (BU) (AU) (BU) (AG)
                 (BU) (AG) (BG) (AU) (AG) (AU) (BG) (BU) (BG) (AU)
                 (BG) (BU) (AU) (AG) (BU) (AG) (AG) (BU) (BU) (AG)
                 (BU) (BU) (AG) (BG) (AU) (AU) (BG) (AU) (AG) (BU)
                 (BG) (AU) (BG) (AU) (BG) (AG) (AU) (BG) (BU) (AG)
                 (BG) (AG) (BU) (AU) (BU) (AU) (AG) (BG) (AG) (BU)
                 (AU) (BG) (AU) (BU) (BU) (AG) (BG) (BG) (AU) (AG)
                 (AU) (BU) (BG) (AG) (BU) (BG) (AU) (AU) (BU) (AG)
                 (BG) (AU) (BU) (AG) (BG) (AG) (BU) (AU) (BU) (AG)
                 (BU) (AU) (BG) (AG) (AU) (BG) (BU) (AG) (AU) (BU)
                 (BG) (AG) (BU) (AG) (BG) (BG) (BU) (AU) (AG) (AU)
                 (BU) (BG) (AG) (AU) (BU) (AG) (BG) (AU) (AG) (BG)
                 (BU) (BG) (AU) (AG) (BU) (AG) (AU) (BG) (BU) (AG)
                 (BU) (AU) (AG) (BU) (AG) (BG) (BU) (AU) (BG) (BG)
                 (BU) (AU) (AG) (AG) (BG) (BU) (AU) (AG) (BU) (AG)
                 (BU) (AG) (AU) (BG) (BU) (AU) (BU) (AG) (AG) (AU)
                 (BG) (BU) (AG) (BG) (BU) (AU) (BU) (AG) (AG) (AU)
                 (BU) (BG) (AG) (AU) (BG) (BG) (BU) (BU) (AG) (AU)
                 (AG) (AG) (BU) (AU) (BG) (BU) (BG) (AU) (AG) (AG)
                 (BU) (BG) (BU) (AU) (AG) (BU) (AU) (BG) (AG) (BU)
                 (BG) (BU) (AG) (AU) (BU) (AG) (AG) (BG) (AG) (AU)
                 (BU) (AU) (BG) (BU) (AG) (BU) (AU) (BG) (AG) (BG)
                 (BU) (AU) (AG) (AG) (BG) (AU) (BU) (BU) (BG) (AG)
                 (AU) (BG) (AG) (BU) (AG) (AU) (BG) (BU) (AG) (BU)
                 (BG) (BU) (BG) (AU) (AG) (AG) (BU) (BU) (AU) (AU)
                 (AG) (AG) (BG) (BU) (AU) (AU) (BG) (BG) (AG) (AU)
                 (AG) (BU) (BU) (BG) (AU) (BG) (AU) (BU) (BU) (AG)
                 (BG) (BG) (AG) (AU) (AG) (BU) (BG) (AU) (BU) (AG)
                 (BU) (BG) (AU) (AG) (AU) (BG) (BU) (BG) (BU) (AG)
                 (AU) (BU) (AG) (BU) (AG) (AG) (BU) (BG) (AU) (AG)
                 (BU) (AU) (BG) (AG) (BU) (AU) (AG) (BG) (AU) (BU)
                 (BG) (AG) (AU) (BU) (BG) (AG) (BU) (AG) (BU) (AU)
                 (BG) (BG) (AU) (AG) (BU) (BU) (AG) (AU) (BG) (BU)
                 (BG) (AU) (AG) (AG) (BU) (AU) (BG) (BU) (AG) (BU)
                 (BU) (AG) (AG) (BU) (AU) (BG) (AG) (BU) (AG) (BU)
                 (AG) (AG) (BG) (BU) (AU) (BU) (AU) (BG) (AG) (AG)
                 (AU) (BU) (BG) (AU) (BU) (AG) (BG) (AU) (BG) (AU)
                 (BG) (AU) (BG) (BU) (AG) (AU) (BG) (BG) (AU) (AG)
                 (BU) (AG) (BU) (AG) (BU) (BU) (AG) (AG) (BU) (AG)
                 (BU) (BU) (AG) (AG) (BU) (AG) (BU)
 The electronic state of the initial guess is 1-AG.
 Leave Link  401 at Fri Apr 16 22:53:06 2021, MaxMem=   104857600 cpu:             150.1 elap:               3.5
 (Enter /s/ls4/users/knvvv/bin/g16sse/l502.exe)
 Integral symmetry usage will be decided dynamically.
 Closed shell SCF:
 Using DIIS extrapolation, IDIIS=  1040.
 NGot=   104857600 LenX=   103100070 LenY=   102249064
 Requested convergence on RMS density matrix=1.00D-08 within 128 cycles.
 Requested convergence on MAX density matrix=1.00D-06.
 Requested convergence on             energy=1.00D-06.
 No special actions if energy rises.
 Fock matrices will be formed incrementally for  20 cycles.
 Integral accuracy reduced to 1.0D-05 until final iterations.

 Cycle   1  Pass 0  IDiag  1:
 FoFJK:  IHMeth= 1 ICntrl=       0 DoSepK=F KAlg= 0 I1Cent=           0 FoldK=F
 IRaf= 870000000 NMat=       1 IRICut=       1 DoRegI=T DoRafI=F ISym2E= 1 IDoP0=0 IntGTp=1.
 FoFCou: FMM=F IPFlag=           0 FMFlag=      100000 FMFlg1=           0
         NFxFlg=           0 DoJE=F BraDBF=F KetDBF=F FulRan=T
         wScrn=  0.000000 ICntrl=         0 IOpCl=  0 I1Cent=           0 NGrid=           0
         NMat0=    1 NMatS0=      1 NMatT0=    0 NMatD0=    1 NMtDS0=    0 NMtDT0=    0
 Petite list used in FoFCou.
 CoulSu:  requested number of processors reduced to:  18 ShMem   1 Linda.
 CalDSu:  requested number of processors reduced to:  46 ShMem   1 Linda.
 E= -236.747693859406    
 DIIS: error= 3.49D-02 at cycle   1 NSaved=   1.
 NSaved= 1 IEnMin= 1 EnMin= -236.747693859406     IErMin= 1 ErrMin= 3.49D-02
 ErrMax= 3.49D-02  0.00D+00 EMaxC= 1.00D-01 BMatC= 4.12D-01 BMatP= 4.12D-01
 IDIUse=3 WtCom= 6.51D-01 WtEn= 3.49D-01
 Coeff-Com:  0.100D+01
 Coeff-En:   0.100D+01
 Coeff:      0.100D+01
 Gap=     0.373 Goal=   None    Shift=    0.000
 GapD=    0.373 DampG=1.000 DampE=0.500 DampFc=0.5000 IDamp=-1.
 Damping current iteration by 5.00D-01
 RMSDP=9.68D-04 MaxDP=4.52D-02              OVMax= 1.81D-01

 Cycle   2  Pass 0  IDiag  1:
 RMSU=  4.77D-04    CP:  9.68D-01
 CoulSu:  requested number of processors reduced to:  18 ShMem   1 Linda.
 CalDSu:  requested number of processors reduced to:  46 ShMem   1 Linda.
 E= -236.907182912737     Delta-E=       -0.159489053331 Rises=F Damp=T
 DIIS: error= 1.18D-02 at cycle   2 NSaved=   2.
 NSaved= 2 IEnMin= 2 EnMin= -236.907182912737     IErMin= 2 ErrMin= 1.18D-02
 ErrMax= 1.18D-02  0.00D+00 EMaxC= 1.00D-01 BMatC= 3.91D-02 BMatP= 4.12D-01
 IDIUse=3 WtCom= 8.82D-01 WtEn= 1.18D-01
 Coeff-Com: -0.158D+00 0.116D+01
 Coeff-En:   0.000D+00 0.100D+01
 Coeff:     -0.140D+00 0.114D+01
 Gap=     0.432 Goal=   None    Shift=    0.000
 RMSDP=5.24D-04 MaxDP=5.87D-02 DE=-1.59D-01 OVMax= 9.46D-02

 Cycle   3  Pass 0  IDiag  1:
 RMSU=  5.21D-04    CP:  9.88D-01  9.35D-01
 CoulSu:  requested number of processors reduced to:  18 ShMem   1 Linda.
 CalDSu:  requested number of processors reduced to:  46 ShMem   1 Linda.
 E= -237.056934461674     Delta-E=       -0.149751548937 Rises=F Damp=F
 DIIS: error= 4.45D-03 at cycle   3 NSaved=   3.
 NSaved= 3 IEnMin= 3 EnMin= -237.056934461674     IErMin= 3 ErrMin= 4.45D-03
 ErrMax= 4.45D-03  0.00D+00 EMaxC= 1.00D-01 BMatC= 2.87D-03 BMatP= 3.91D-02
 IDIUse=3 WtCom= 9.55D-01 WtEn= 4.45D-02
 Coeff-Com: -0.857D-01 0.215D+00 0.871D+00
 Coeff-En:   0.000D+00 0.000D+00 0.100D+01
 Coeff:     -0.818D-01 0.206D+00 0.876D+00
 Gap=     0.409 Goal=   None    Shift=    0.000
 RMSDP=6.94D-05 MaxDP=9.85D-03 DE=-1.50D-01 OVMax= 1.06D-02

 Cycle   4  Pass 0  IDiag  1:
 RMSU=  5.97D-05    CP:  9.79D-01  9.75D-01  9.64D-01
 CoulSu:  requested number of processors reduced to:  18 ShMem   1 Linda.
 CalDSu:  requested number of processors reduced to:  46 ShMem   1 Linda.
 E= -237.059680711024     Delta-E=       -0.002746249350 Rises=F Damp=F
 DIIS: error= 6.72D-04 at cycle   4 NSaved=   4.
 NSaved= 4 IEnMin= 4 EnMin= -237.059680711024     IErMin= 4 ErrMin= 6.72D-04
 ErrMax= 6.72D-04  0.00D+00 EMaxC= 1.00D-01 BMatC= 1.64D-04 BMatP= 2.87D-03
 IDIUse=3 WtCom= 9.93D-01 WtEn= 6.72D-03
 Coeff-Com: -0.183D-01 0.428D-01 0.264D+00 0.711D+00
 Coeff-En:   0.000D+00 0.000D+00 0.000D+00 0.100D+01
 Coeff:     -0.182D-01 0.425D-01 0.262D+00 0.713D+00
 Gap=     0.410 Goal=   None    Shift=    0.000
 RMSDP=2.14D-05 MaxDP=1.59D-03 DE=-2.75D-03 OVMax= 2.96D-03

 Cycle   5  Pass 0  IDiag  1:
 RMSU=  1.96D-05    CP:  9.79D-01  9.59D-01  9.63D-01  1.06D+00
 CoulSu:  requested number of processors reduced to:  18 ShMem   1 Linda.
 CalDSu:  requested number of processors reduced to:  46 ShMem   1 Linda.
 E= -237.059825918949     Delta-E=       -0.000145207925 Rises=F Damp=F
 DIIS: error= 2.31D-04 at cycle   5 NSaved=   5.
 NSaved= 5 IEnMin= 5 EnMin= -237.059825918949     IErMin= 5 ErrMin= 2.31D-04
 ErrMax= 2.31D-04  0.00D+00 EMaxC= 1.00D-01 BMatC= 1.88D-05 BMatP= 1.64D-04
 IDIUse=3 WtCom= 9.98D-01 WtEn= 2.31D-03
 Coeff-Com:  0.917D-03-0.180D-02 0.296D-01 0.272D+00 0.699D+00
 Coeff-En:   0.000D+00 0.000D+00 0.000D+00 0.000D+00 0.100D+01
 Coeff:      0.914D-03-0.180D-02 0.296D-01 0.271D+00 0.700D+00
 Gap=     0.410 Goal=   None    Shift=    0.000
 RMSDP=1.03D-05 MaxDP=5.93D-04 DE=-1.45D-04 OVMax= 9.40D-04

 Cycle   6  Pass 0  IDiag  1:
 RMSU=  8.09D-06    CP:  9.79D-01  9.57D-01  9.62D-01  1.13D+00  1.24D+00
 CoulSu:  requested number of processors reduced to:  18 ShMem   1 Linda.
 CalDSu:  requested number of processors reduced to:  46 ShMem   1 Linda.
 E= -237.059845605196     Delta-E=       -0.000019686247 Rises=F Damp=F
 DIIS: error= 4.44D-05 at cycle   6 NSaved=   6.
 NSaved= 6 IEnMin= 6 EnMin= -237.059845605196     IErMin= 6 ErrMin= 4.44D-05
 ErrMax= 4.44D-05  0.00D+00 EMaxC= 1.00D-01 BMatC= 6.01D-07 BMatP= 1.88D-05
 IDIUse=1 WtCom= 1.00D+00 WtEn= 0.00D+00
 Coeff-Com:  0.182D-02-0.410D-02-0.137D-01 0.807D-02 0.146D+00 0.862D+00
 Coeff:      0.182D-02-0.410D-02-0.137D-01 0.807D-02 0.146D+00 0.862D+00
 Gap=     0.410 Goal=   None    Shift=    0.000
 RMSDP=9.79D-06 MaxDP=5.71D-04 DE=-1.97D-05 OVMax= 1.93D-04

 Initial convergence to 1.0D-05 achieved.  Increase integral accuracy.
 Cycle   7  Pass 1  IDiag  1:
 CoulSu:  requested number of processors reduced to:  18 ShMem   1 Linda.
 CalDSu:  requested number of processors reduced to:  46 ShMem   1 Linda.
 E= -237.059790010711     Delta-E=        0.000055594485 Rises=F Damp=F
 DIIS: error= 4.70D-04 at cycle   1 NSaved=   1.
 NSaved= 1 IEnMin= 1 EnMin= -237.059790010711     IErMin= 1 ErrMin= 4.70D-04
 ErrMax= 4.70D-04  0.00D+00 EMaxC= 1.00D-01 BMatC= 1.26D-05 BMatP= 1.26D-05
 IDIUse=3 WtCom= 9.95D-01 WtEn= 4.70D-03
 Coeff-Com:  0.100D+01
 Coeff-En:   0.100D+01
 Coeff:      0.100D+01
 Gap=     0.412 Goal=   None    Shift=    0.000
 RMSDP=9.79D-06 MaxDP=5.71D-04 DE= 5.56D-05 OVMax= 8.17D-04

 Cycle   8  Pass 1  IDiag  1:
 RMSU=  1.52D-04    CP:  9.98D-01
 CoulSu:  requested number of processors reduced to:  18 ShMem   1 Linda.
 CalDSu:  requested number of processors reduced to:  46 ShMem   1 Linda.
 E= -237.059798060239     Delta-E=       -0.000008049527 Rises=F Damp=F
 DIIS: error= 1.32D-05 at cycle   2 NSaved=   2.
 NSaved= 2 IEnMin= 2 EnMin= -237.059798060239     IErMin= 2 ErrMin= 1.32D-05
 ErrMax= 1.32D-05  0.00D+00 EMaxC= 1.00D-01 BMatC= 6.82D-08 BMatP= 1.26D-05
 IDIUse=1 WtCom= 1.00D+00 WtEn= 0.00D+00
 Coeff-Com: -0.142D-01 0.101D+01
 Coeff:     -0.142D-01 0.101D+01
 Gap=     0.411 Goal=   None    Shift=    0.000
 RMSDP=5.46D-06 MaxDP=2.96D-04 DE=-8.05D-06 OVMax= 9.11D-05

 Cycle   9  Pass 1  IDiag  1:
 RMSU=  1.86D-06    CP:  9.98D-01  1.03D+00
 CoulSu:  requested number of processors reduced to:  18 ShMem   1 Linda.
 CalDSu:  requested number of processors reduced to:  46 ShMem   1 Linda.
 E= -237.059798074493     Delta-E=       -0.000000014254 Rises=F Damp=F
 DIIS: error= 1.22D-05 at cycle   3 NSaved=   3.
 NSaved= 3 IEnMin= 3 EnMin= -237.059798074493     IErMin= 3 ErrMin= 1.22D-05
 ErrMax= 1.22D-05  0.00D+00 EMaxC= 1.00D-01 BMatC= 5.41D-08 BMatP= 6.82D-08
 IDIUse=1 WtCom= 1.00D+00 WtEn= 0.00D+00
 Coeff-Com: -0.118D-01 0.483D+00 0.529D+00
 Coeff:     -0.118D-01 0.483D+00 0.529D+00
 Gap=     0.411 Goal=   None    Shift=    0.000
 RMSDP=2.31D-07 MaxDP=2.22D-05 DE=-1.43D-08 OVMax= 4.33D-05

 Cycle  10  Pass 1  IDiag  1:
 RMSU=  1.85D-07    CP:  9.98D-01  1.03D+00  1.04D+00
 CoulSu:  requested number of processors reduced to:  18 ShMem   1 Linda.
 CalDSu:  requested number of processors reduced to:  46 ShMem   1 Linda.
 E= -237.059798123914     Delta-E=       -0.000000049421 Rises=F Damp=F
 DIIS: error= 8.84D-07 at cycle   4 NSaved=   4.
 NSaved= 4 IEnMin= 4 EnMin= -237.059798123914     IErMin= 4 ErrMin= 8.84D-07
 ErrMax= 8.84D-07  0.00D+00 EMaxC= 1.00D-01 BMatC= 3.27D-10 BMatP= 5.41D-08
 IDIUse=1 WtCom= 1.00D+00 WtEn= 0.00D+00
 Coeff-Com: -0.382D-03-0.882D-02 0.452D-01 0.964D+00
 Coeff:     -0.382D-03-0.882D-02 0.452D-01 0.964D+00
 Gap=     0.411 Goal=   None    Shift=    0.000
 RMSDP=1.07D-07 MaxDP=1.01D-05 DE=-4.94D-08 OVMax= 4.67D-06

 Cycle  11  Pass 1  IDiag  1:
 RMSU=  3.97D-08    CP:  9.98D-01  1.03D+00  1.08D+00  1.04D+00
 CoulSu:  requested number of processors reduced to:  18 ShMem   1 Linda.
 CalDSu:  requested number of processors reduced to:  46 ShMem   1 Linda.
 E= -237.059798124194     Delta-E=       -0.000000000281 Rises=F Damp=F
 DIIS: error= 4.27D-07 at cycle   5 NSaved=   5.
 NSaved= 5 IEnMin= 5 EnMin= -237.059798124194     IErMin= 5 ErrMin= 4.27D-07
 ErrMax= 4.27D-07  0.00D+00 EMaxC= 1.00D-01 BMatC= 6.48D-11 BMatP= 3.27D-10
 IDIUse=1 WtCom= 1.00D+00 WtEn= 0.00D+00
 Coeff-Com:  0.451D-03-0.279D-01-0.921D-02 0.371D+00 0.666D+00
 Coeff:      0.451D-03-0.279D-01-0.921D-02 0.371D+00 0.666D+00
 Gap=     0.411 Goal=   None    Shift=    0.000
 RMSDP=1.29D-08 MaxDP=1.21D-06 DE=-2.81D-10 OVMax= 1.71D-06

 Cycle  12  Pass 1  IDiag  1:
 RMSU=  7.36D-09    CP:  9.98D-01  1.03D+00  1.08D+00  1.06D+00  1.09D+00
 CoulSu:  requested number of processors reduced to:  18 ShMem   1 Linda.
 CalDSu:  requested number of processors reduced to:  46 ShMem   1 Linda.
 E= -237.059798124241     Delta-E=       -0.000000000047 Rises=F Damp=F
 DIIS: error= 7.64D-08 at cycle   6 NSaved=   6.
 NSaved= 6 IEnMin= 6 EnMin= -237.059798124241     IErMin= 6 ErrMin= 7.64D-08
 ErrMax= 7.64D-08  0.00D+00 EMaxC= 1.00D-01 BMatC= 2.28D-12 BMatP= 6.48D-11
 IDIUse=1 WtCom= 1.00D+00 WtEn= 0.00D+00
 Coeff-Com:  0.137D-03-0.650D-02-0.506D-02 0.313D-01 0.166D+00 0.814D+00
 Coeff:      0.137D-03-0.650D-02-0.506D-02 0.313D-01 0.166D+00 0.814D+00
 Gap=     0.411 Goal=   None    Shift=    0.000
 RMSDP=2.93D-09 MaxDP=2.28D-07 DE=-4.66D-11 OVMax= 3.91D-07

 SCF Done:  E(RM062X) =  -237.059798124     A.U. after   12 cycles
            NFock= 12  Conv=0.29D-08     -V/T= 2.0053
 KE= 2.358111284520D+02 PE=-1.036502732939D+03 EE= 3.193559475425D+02
 Leave Link  502 at Fri Apr 16 23:00:45 2021, MaxMem=   104857600 cpu:           18238.7 elap:             459.5
 (Enter /s/ls4/users/knvvv/bin/g16sse/l601.exe)
 Copying SCF densities to generalized density rwf, IOpCl= 0 IROHF=0.

 **********************************************************************

            Population analysis using the SCF density.

 **********************************************************************

 Orbital symmetries:
       Occupied  (AG) (BU) (AG) (BU) (BU) (AG) (AG) (BU) (AG) (BU)
                 (AG) (BU) (AU) (BG) (AG) (BU) (AU) (BU) (AG) (BG)
                 (BU) (AU) (AG) (BG) (AG)
       Virtual   (AG) (BU) (BU) (AU) (AG) (AG) (BG) (BU) (BG) (BU)
                 (AG) (AU) (AG) (AU) (BU) (BG) (AG) (BU) (AG) (BG)
                 (BU) (AU) (AU) (BU) (AG) (BG) (AU) (BU) (AG) (BU)
                 (BU) (AU) (AG) (BG) (BU) (AG) (BG) (BU) (AG) (BU)
                 (AU) (BG) (AG) (AU) (AG) (AG) (BU) (BG) (BU) (AG)
                 (BU) (BU) (BU) (AG) (BG) (AG) (AU) (AG) (AG) (AU)
                 (BU) (BU) (BU) (AU) (AG) (BG) (BG) (BU) (AG) (AU)
                 (BU) (AG) (AU) (BG) (BG) (AU) (AG) (AU) (BU) (AG)
                 (BG) (BG) (AG) (AU) (BU) (BG) (AG) (BU) (BG) (AU)
                 (BU) (BG) (BU) (AG) (AU) (BU) (AG) (BG) (BU) (AG)
                 (AG) (BU) (AG) (AU) (BU) (AU) (BG) (BU) (AU) (AG)
                 (BU) (AG) (BG) (AU) (AG) (BU) (AG) (BG) (BU) (AG)
                 (BU) (AU) (BG) (AG) (AU) (BU) (BU) (AG) (AG) (BU)
                 (AG) (BG) (AG) (BU) (AU) (BG) (AG) (BG) (AU) (BU)
                 (BU) (AU) (BG) (BU) (AG) (AU) (BU) (BG) (AG) (BG)
                 (BU) (AU) (BU) (AG) (AG) (AU) (AG) (BG) (BU) (BU)
                 (AG) (BU) (BG) (AG) (AU) (AU) (BU) (BG) (AG) (AG)
                 (AU) (AG) (BU) (BG) (AG) (AU) (BU) (BG) (AG) (BU)
                 (BG) (AU) (BU) (AG) (BG) (AU) (AU) (BU) (AU) (BG)
                 (BG) (AU) (BU) (AG) (BG) (BU) (AG) (AG) (AU) (AU)
                 (BG) (BU) (AG) (BG) (AU) (AG) (BU) (BU) (BG) (AG)
                 (BU) (BG) (AU) (AG) (BU) (BU) (AU) (AG) (AU) (BU)
                 (AG) (BU) (BG) (AG) (AU) (BU) (BG) (BG) (AG) (AG)
                 (AU) (BG) (BU) (BU) (AG) (AU) (AG) (BG) (AU) (BU)
                 (BG) (BU) (BU) (AG) (AG) (AU) (BG) (BU) (AU) (AG)
                 (BU) (AG) (BG) (AU) (BG) (BU) (AG) (AG) (AU) (BU)
                 (AG) (BG) (BU) (AG) (AU) (BU) (BG) (BG) (AU) (BU)
                 (AU) (BG) (AG) (BU) (AU) (BU) (AG) (BG) (AG) (AG)
                 (BU) (AU) (AU) (BG) (BU) (AG) (BU) (AG) (BU) (BG)
                 (AG) (BG) (AU) (AU) (AG) (BG) (BU) (AU) (BU) (AG)
                 (AG) (BG) (BG) (AG) (AU) (BU) (BU) (AG) (BU) (BU)
                 (AG) (AU) (BU) (AG) (BG) (AU) (AG) (BU) (AG) (AG)
                 (BG) (BU) (AU) (AG) (BU) (BG) (AG) (BU) (AU) (BU)
                 (BG) (AG) (BG) (AU) (AG) (AU) (BG) (BU) (BU) (AG)
                 (BG) (AU) (AG) (BU) (BG) (AG) (AU) (BU) (BU) (AG)
                 (BU) (AG) (BG) (AU) (AG) (AU) (BG) (BU) (AU) (BG)
                 (BG) (AU) (BU) (AG) (BU) (AG) (AG) (BU) (BU) (AG)
                 (BU) (AG) (BU) (BG) (AU) (AU) (BG) (AU) (BU) (AG)
                 (BG) (AU) (BG) (AU) (BG) (AG) (AU) (BG) (BU) (AG)
                 (BG) (AG) (AU) (BU) (BU) (AU) (BG) (AG) (BU) (AU)
                 (BG) (AU) (AG) (BU) (BG) (BU) (AG) (AU) (BG) (AU)
                 (AG) (BG) (BU) (AU) (BG) (AG) (BG) (AU) (AU) (BU)
                 (AG) (BG) (BU) (BU) (AG) (AU) (BU) (AG) (BG) (BU)
                 (AG) (BU) (AU) (AG) (BG) (AU) (AU) (BU) (BG) (AG)
                 (BU) (AG) (BG) (AG) (BG) (BU) (BU) (AU) (AU) (AG)
                 (BU) (BG) (AG) (BU) (AU) (BG) (AG) (AG) (AU) (BG)
                 (AG) (AU) (BG) (BU) (BU) (AG) (AU) (BG) (BU) (AG)
                 (BU) (AU) (AG) (BU) (AG) (BG) (BU) (BG) (AU) (BG)
                 (BU) (AG) (AU) (AG) (BG) (AU) (BU) (BU) (AG) (AU)
                 (BU) (AG) (BG) (AG) (BU) (AU) (AU) (AG) (BG) (BU)
                 (AG) (BG) (BU) (AG) (BU) (AU) (BU) (AG) (AU) (AG)
                 (BG) (AG) (BU) (AU) (BG) (BG) (BU) (AG) (AU) (BU)
                 (AG) (AU) (AG) (BU) (BG) (BU) (AU) (BG) (AG) (AG)
                 (BU) (BG) (AU) (BU) (AG) (AU) (BU) (BG) (AG) (BG)
                 (BU) (BU) (AU) (AG) (AU) (BG) (AG) (BU) (AG) (BU)
                 (AG) (AU) (BG) (BU) (AG) (AU) (BG) (BU) (BG) (AG)
                 (BU) (AU) (AG) (BG) (AG) (AU) (BG) (BU) (BU) (AU)
                 (AG) (BG) (AU) (AG) (BU) (BU) (AG) (BG) (AU) (BG)
                 (BG) (AG) (BU) (BU) (AG) (AG) (AU) (BU) (AU) (BU)
                 (BG) (AG) (AG) (BU) (AU) (AG) (BU) (AU) (BG) (BU)
                 (BG) (AG) (BG) (BG) (AU) (AU) (BG) (BU) (AU) (AG)
                 (BU) (BG) (AU) (AG) (BU) (AU) (AG) (BU) (AG) (BG)
                 (BU) (BG) (AU) (AG) (BU) (AU) (BG) (BU) (BG) (AG)
                 (AU) (AG) (BU) (AG) (BU) (BG) (AG) (AU) (BU) (AU)
                 (BG) (AG) (BU) (AG) (BU) (AU) (AG) (BU) (AU) (BG)
                 (BG) (AG) (AU) (BU) (BG) (AG) (BU) (BG) (AU) (AG)
                 (BG) (AU) (BU) (AG) (BU) (BU) (AG) (AU) (BU) (AG)
                 (BG) (AU) (BG) (AG) (BU) (BU) (AU) (AG) (BG) (BU)
                 (BU) (AG) (AG) (AU) (BU) (BG) (AG) (BU) (AG) (BU)
                 (AG) (BG) (AU) (AG) (AU) (BU) (BU) (BG) (AG) (AU)
                 (AG) (BU) (BG) (AU) (BU) (AG) (BG) (AU) (BG) (AU)
                 (BG) (AU) (BG) (BU) (AG) (AU) (BG) (BG) (AU) (AG)
                 (BU) (AG) (BU) (AG) (BU) (BU) (AG) (AG) (BU) (AG)
                 (BU) (BU) (AG) (AG) (BU) (AG) (BU)
 The electronic state is 1-AG.
 Alpha  occ. eigenvalues --  -10.53052 -10.53051 -10.52882 -10.52844 -10.52374
 Alpha  occ. eigenvalues --  -10.52374  -0.90621  -0.86473  -0.80054  -0.72418
 Alpha  occ. eigenvalues --   -0.66264  -0.65558  -0.55183  -0.51518  -0.50288
 Alpha  occ. eigenvalues --   -0.48726  -0.46430  -0.44302  -0.44029  -0.41559
 Alpha  occ. eigenvalues --   -0.40005  -0.38571  -0.38265  -0.37825  -0.36401
 Alpha virt. eigenvalues --    0.04666   0.05046   0.05940   0.06322   0.07200
 Alpha virt. eigenvalues --    0.09187   0.09893   0.10493   0.10994   0.12162
 Alpha virt. eigenvalues --    0.12258   0.12713   0.14383   0.14873   0.15438
 Alpha virt. eigenvalues --    0.15931   0.16298   0.18769   0.19182   0.20028
 Alpha virt. eigenvalues --    0.20813   0.21239   0.23463   0.23880   0.25147
 Alpha virt. eigenvalues --    0.25444   0.27334   0.27823   0.28225   0.28489
 Alpha virt. eigenvalues --    0.29041   0.29286   0.31515   0.32582   0.33653
 Alpha virt. eigenvalues --    0.34519   0.35025   0.35623   0.35725   0.35747
 Alpha virt. eigenvalues --    0.36152   0.36198   0.36615   0.37420   0.37937
 Alpha virt. eigenvalues --    0.39295   0.39484   0.39538   0.41957   0.42284
 Alpha virt. eigenvalues --    0.45873   0.50627   0.52339   0.52622   0.53023
 Alpha virt. eigenvalues --    0.53918   0.55040   0.57243   0.58184   0.59301
 Alpha virt. eigenvalues --    0.60310   0.60449   0.61760   0.62429   0.63703
 Alpha virt. eigenvalues --    0.64424   0.64973   0.65134   0.65190   0.66046
 Alpha virt. eigenvalues --    0.69937   0.70778   0.72632   0.72649   0.73598
 Alpha virt. eigenvalues --    0.75941   0.76334   0.77251   0.77406   0.77487
 Alpha virt. eigenvalues --    0.79597   0.81195   0.81736   0.82011   0.83255
 Alpha virt. eigenvalues --    0.83817   0.83906   0.84575   0.85990   0.86240
 Alpha virt. eigenvalues --    0.86473   0.87453   0.87925   0.88051   0.88467
 Alpha virt. eigenvalues --    0.90512   0.92851   0.93373   0.93471   0.93644
 Alpha virt. eigenvalues --    0.94644   0.94888   0.97696   0.98972   0.99197
 Alpha virt. eigenvalues --    0.99246   1.00048   1.00240   1.01859   1.02735
 Alpha virt. eigenvalues --    1.05569   1.06899   1.07480   1.08152   1.08641
 Alpha virt. eigenvalues --    1.08757   1.09135   1.12382   1.13982   1.14620
 Alpha virt. eigenvalues --    1.16786   1.18247   1.19623   1.21401   1.21417
 Alpha virt. eigenvalues --    1.22145   1.22632   1.22976   1.26292   1.26317
 Alpha virt. eigenvalues --    1.27790   1.29382   1.29517   1.31370   1.32831
 Alpha virt. eigenvalues --    1.34805   1.34836   1.36830   1.37200   1.38089
 Alpha virt. eigenvalues --    1.39575   1.43535   1.43864   1.45346   1.46074
 Alpha virt. eigenvalues --    1.47726   1.48370   1.49488   1.49580   1.52888
 Alpha virt. eigenvalues --    1.53177   1.54288   1.56709   1.57457   1.59694
 Alpha virt. eigenvalues --    1.61990   1.62623   1.63910   1.64566   1.67264
 Alpha virt. eigenvalues --    1.69428   1.79096   1.81435   1.82051   1.83852
 Alpha virt. eigenvalues --    1.86997   1.87886   1.88109   1.88516   1.89341
 Alpha virt. eigenvalues --    1.92825   1.92855   1.94453   1.95119   1.96703
 Alpha virt. eigenvalues --    1.98000   1.99937   1.99971   2.01235   2.01378
 Alpha virt. eigenvalues --    2.01608   2.01725   2.02108   2.04057   2.04142
 Alpha virt. eigenvalues --    2.04662   2.06799   2.07654   2.08211   2.08698
 Alpha virt. eigenvalues --    2.10843   2.10878   2.11169   2.11686   2.11958
 Alpha virt. eigenvalues --    2.12843   2.13182   2.13411   2.13785   2.14734
 Alpha virt. eigenvalues --    2.15035   2.15925   2.16297   2.18260   2.18698
 Alpha virt. eigenvalues --    2.19137   2.19885   2.20804   2.21470   2.22849
 Alpha virt. eigenvalues --    2.24366   2.25770   2.26213   2.28659   2.30651
 Alpha virt. eigenvalues --    2.32296   2.32953   2.35947   2.36916   2.37552
 Alpha virt. eigenvalues --    2.38441   2.39526   2.40032   2.41746   2.43846
 Alpha virt. eigenvalues --    2.43942   2.44124   2.45896   2.47659   2.49742
 Alpha virt. eigenvalues --    2.50350   2.51571   2.52238   2.53483   2.54271
 Alpha virt. eigenvalues --    2.55261   2.57484   2.58585   2.59882   2.60046
 Alpha virt. eigenvalues --    2.60983   2.62109   2.63550   2.67098   2.67914
 Alpha virt. eigenvalues --    2.67975   2.68029   2.71007   2.71780   2.73127
 Alpha virt. eigenvalues --    2.73849   2.74136   2.74949   2.77761   2.79046
 Alpha virt. eigenvalues --    2.79299   2.80092   2.80447   2.82096   2.83159
 Alpha virt. eigenvalues --    2.84875   2.85238   2.85617   2.86813   2.87282
 Alpha virt. eigenvalues --    2.87520   2.90369   2.90940   2.91200   2.91511
 Alpha virt. eigenvalues --    2.92019   2.92144   2.92395   2.95036   2.96220
 Alpha virt. eigenvalues --    2.97389   2.98022   2.99111   3.00650   3.02606
 Alpha virt. eigenvalues --    3.03625   3.04292   3.05449   3.05832   3.05998
 Alpha virt. eigenvalues --    3.08244   3.09690   3.12054   3.12172   3.12614
 Alpha virt. eigenvalues --    3.13285   3.14847   3.16522   3.19819   3.21673
 Alpha virt. eigenvalues --    3.23246   3.24728   3.26222   3.27268   3.27465
 Alpha virt. eigenvalues --    3.30719   3.30740   3.31308   3.32587   3.34294
 Alpha virt. eigenvalues --    3.34394   3.37338   3.37817   3.40168   3.40576
 Alpha virt. eigenvalues --    3.40891   3.42217   3.45965   3.45989   3.52294
 Alpha virt. eigenvalues --    3.53095   3.53696   3.53799   3.55364   3.58552
 Alpha virt. eigenvalues --    3.59178   3.60694   3.61071   3.64733   3.66391
 Alpha virt. eigenvalues --    3.68036   3.71846   3.71900   3.74171   3.76628
 Alpha virt. eigenvalues --    3.77810   3.78994   3.79594   3.81032   3.82546
 Alpha virt. eigenvalues --    3.82821   3.85179   3.86944   3.88972   3.89150
 Alpha virt. eigenvalues --    3.89153   3.89604   3.89966   3.90492   3.96033
 Alpha virt. eigenvalues --    3.96615   3.98943   3.99418   4.01474   4.03435
 Alpha virt. eigenvalues --    4.04815   4.08606   4.10085   4.10262   4.15969
 Alpha virt. eigenvalues --    4.17163   4.18311   4.18863   4.22922   4.24321
 Alpha virt. eigenvalues --    4.28410   4.31072   4.31366   4.34225   4.64711
 Alpha virt. eigenvalues --    4.68654   4.69015   4.74436   4.74843   4.91349
 Alpha virt. eigenvalues --    4.96258   5.03842   5.04905   5.06621   5.07934
 Alpha virt. eigenvalues --    5.13342   5.17210   5.23839   5.24819   5.25869
 Alpha virt. eigenvalues --    5.29474   5.32630   5.36835   5.40098   5.40829
 Alpha virt. eigenvalues --    5.41184   5.43665   5.44680   5.44844   5.47401
 Alpha virt. eigenvalues --    5.49051   5.49829   5.50359   5.53631   5.59445
 Alpha virt. eigenvalues --    5.61795   5.63401   5.66126   5.67848   5.68671
 Alpha virt. eigenvalues --    5.70005   5.70680   5.70841   5.72353   5.72565
 Alpha virt. eigenvalues --    5.74874   5.74960   5.76958   5.77449   5.77608
 Alpha virt. eigenvalues --    5.79361   5.79646   5.81207   5.81450   5.82204
 Alpha virt. eigenvalues --    5.83229   5.83491   5.83856   5.84650   5.86039
 Alpha virt. eigenvalues --    5.88081   5.89289   5.91253   5.92003   5.93234
 Alpha virt. eigenvalues --    5.93442   5.95255   5.96019   5.98802   5.99961
 Alpha virt. eigenvalues --    6.01808   6.02476   6.03159   6.03391   6.05716
 Alpha virt. eigenvalues --    6.06265   6.06507   6.06909   6.09380   6.09470
 Alpha virt. eigenvalues --    6.09752   6.11302   6.12083   6.13215   6.14320
 Alpha virt. eigenvalues --    6.14970   6.15763   6.17367   6.18431   6.20683
 Alpha virt. eigenvalues --    6.22836   6.23368   6.23748   6.24556   6.24975
 Alpha virt. eigenvalues --    6.25573   6.25904   6.28051   6.28646   6.32192
 Alpha virt. eigenvalues --    6.33409   6.33409   6.34426   6.35178   6.36920
 Alpha virt. eigenvalues --    6.38323   6.38749   6.39862   6.41063   6.41581
 Alpha virt. eigenvalues --    6.44959   6.45785   6.47064   6.48268   6.48557
 Alpha virt. eigenvalues --    6.49693   6.49744   6.55330   6.55523   6.56733
 Alpha virt. eigenvalues --    6.56848   6.58882   6.60095   6.60925   6.63080
 Alpha virt. eigenvalues --    6.64697   6.64999   6.67567   6.68031   6.70813
 Alpha virt. eigenvalues --    6.73251   6.73479   6.74574   6.75947   6.78873
 Alpha virt. eigenvalues --    6.79482   6.83471   6.83948   6.85079   6.85994
 Alpha virt. eigenvalues --    6.87592   6.88896   6.89538   6.89575   6.93462
 Alpha virt. eigenvalues --    6.95303   6.97446   6.97513   6.98570   7.03788
 Alpha virt. eigenvalues --    7.05056   7.06959   7.09109   7.10004   7.10739
 Alpha virt. eigenvalues --    7.13268   7.17244   7.19494   7.19995   7.20028
 Alpha virt. eigenvalues --    7.23817   7.24869   7.25993   7.26542   7.29143
 Alpha virt. eigenvalues --    7.29478   7.29525   7.30211   7.32413   7.33986
 Alpha virt. eigenvalues --    7.34542   7.36096   7.37876   7.38103   7.40036
 Alpha virt. eigenvalues --    7.40349   7.40802   7.40926   7.42694   7.43886
 Alpha virt. eigenvalues --    7.46789   7.47484   7.50191   7.50572   7.51302
 Alpha virt. eigenvalues --    7.52084   7.52112   7.52868   7.54223   7.54242
 Alpha virt. eigenvalues --    7.54682   7.56081   7.56194   7.61092   7.62175
 Alpha virt. eigenvalues --    7.62523   7.63021   7.64416   7.67009   7.67149
 Alpha virt. eigenvalues --    7.67632   7.68482   7.69398   7.69673   7.70666
 Alpha virt. eigenvalues --    7.70908   7.73329   7.74348   7.75050   7.77101
 Alpha virt. eigenvalues --    7.77408   7.78132   7.79547   7.79856   7.80701
 Alpha virt. eigenvalues --    7.81637   7.82004   7.82327   7.85866   7.85942
 Alpha virt. eigenvalues --    7.86748   7.90419   7.92191   7.92845   7.93282
 Alpha virt. eigenvalues --    7.95270   7.98934   7.99173   8.01047   8.02698
 Alpha virt. eigenvalues --    8.06209   8.07589   8.11300   8.14034   8.15071
 Alpha virt. eigenvalues --    8.17140   8.18339   8.18383   8.18621   8.20710
 Alpha virt. eigenvalues --    8.20747   8.21692   8.22717   8.23017   8.23436
 Alpha virt. eigenvalues --    8.25149   8.26298   8.26330   8.26758   8.26955
 Alpha virt. eigenvalues --    8.28300   8.30226   8.31195   8.31935   8.32418
 Alpha virt. eigenvalues --    8.33257   8.34275   8.36110   8.36651   8.37027
 Alpha virt. eigenvalues --    8.37716   8.40534   8.42438   8.44908   8.47712
 Alpha virt. eigenvalues --    8.49337   8.49966   8.51427   8.52951   8.53902
 Alpha virt. eigenvalues --    8.53925   8.55484   8.57439   8.61932   8.62818
 Alpha virt. eigenvalues --    8.66573   8.67518   8.67561   8.68745   8.71542
 Alpha virt. eigenvalues --    8.71937   8.72359   8.74780   8.77753   8.79881
 Alpha virt. eigenvalues --    8.79996   8.82645   8.82865   8.83041   8.83100
 Alpha virt. eigenvalues --    8.83954   8.86251   8.90941   8.91587   8.92451
 Alpha virt. eigenvalues --    8.94791   8.97105   9.01798   9.01975   9.02531
 Alpha virt. eigenvalues --    9.04232   9.08407   9.10483   9.18571   9.30099
 Alpha virt. eigenvalues --    9.35254   9.37258   9.41557   9.46718   9.47267
 Alpha virt. eigenvalues --    9.47434   9.50226   9.50279   9.53082   9.54369
 Alpha virt. eigenvalues --    9.54712   9.56848   9.57526   9.58283   9.59183
 Alpha virt. eigenvalues --    9.62038   9.62522   9.66408   9.67710   9.67954
 Alpha virt. eigenvalues --    9.69018   9.71343   9.78371   9.80712   9.86580
 Alpha virt. eigenvalues --    9.89689   9.89875   9.92189   9.93321   9.93839
 Alpha virt. eigenvalues --    9.96638   9.97392   9.98836  10.04664  10.07160
 Alpha virt. eigenvalues --   10.07366  10.09838  10.11658  10.12111  10.12725
 Alpha virt. eigenvalues --   10.15564  10.20813  10.25930  10.26125  10.36669
 Alpha virt. eigenvalues --   10.37045  11.68222  11.72355  11.87289  11.87530
 Alpha virt. eigenvalues --   11.95988  12.01803  12.04050  12.05146  12.81031
 Alpha virt. eigenvalues --   12.83186  12.87498  12.97364  13.06852  13.07593
 Alpha virt. eigenvalues --   29.02597  29.05694  29.09655  29.16020  29.21068
 Alpha virt. eigenvalues --   29.22696 146.53247 146.58930 146.62037 146.66911
 Alpha virt. eigenvalues --  146.73391 146.75700
          Condensed to atoms (all electrons):
               1          2          3          4          5          6
     1  C    5.438361   0.290755   0.316843  -0.065790  -0.068974   0.007629
     2  C    0.290755   5.438361  -0.065790   0.316843   0.007629  -0.068974
     3  C    0.316843  -0.065790   5.370847   0.008584   0.326428  -0.001226
     4  C   -0.065790   0.316843   0.008584   5.370847  -0.001226   0.326428
     5  C   -0.068974   0.007629   0.326428  -0.001226   5.380319   0.000058
     6  C    0.007629  -0.068974  -0.001226   0.326428   0.000058   5.380319
     7  H    0.358019  -0.058958  -0.055851  -0.002176  -0.001072  -0.000231
     8  H    0.358019  -0.058958  -0.055851  -0.002176  -0.001072  -0.000231
     9  H   -0.058958   0.358019  -0.002176  -0.055851  -0.000231  -0.001072
    10  H   -0.058958   0.358019  -0.002176  -0.055851  -0.000231  -0.001072
    11  H   -0.058230  -0.002370   0.361439  -0.000321  -0.054036  -0.000057
    12  H   -0.058230  -0.002370   0.361439  -0.000321  -0.054036  -0.000057
    13  H   -0.002370  -0.058230  -0.000321   0.361439  -0.000057  -0.054036
    14  H   -0.002370  -0.058230  -0.000321   0.361439  -0.000057  -0.054036
    15  H    0.011569  -0.000715  -0.048112   0.000065   0.372443  -0.000003
    16  H   -0.005268  -0.000513  -0.050119  -0.000062   0.365399  -0.000001
    17  H   -0.005268  -0.000513  -0.050119  -0.000062   0.365399  -0.000001
    18  H   -0.000715   0.011569   0.000065  -0.048112  -0.000003   0.372443
    19  H   -0.000513  -0.005268  -0.000062  -0.050119  -0.000001   0.365399
    20  H   -0.000513  -0.005268  -0.000062  -0.050119  -0.000001   0.365399
               7          8          9         10         11         12
     1  C    0.358019   0.358019  -0.058958  -0.058958  -0.058230  -0.058230
     2  C   -0.058958  -0.058958   0.358019   0.358019  -0.002370  -0.002370
     3  C   -0.055851  -0.055851  -0.002176  -0.002176   0.361439   0.361439
     4  C   -0.002176  -0.002176  -0.055851  -0.055851  -0.000321  -0.000321
     5  C   -0.001072  -0.001072  -0.000231  -0.000231  -0.054036  -0.054036
     6  C   -0.000231  -0.000231  -0.001072  -0.001072  -0.000057  -0.000057
     7  H    0.582177  -0.047301  -0.005429   0.009440   0.009847  -0.006294
     8  H   -0.047301   0.582177   0.009440  -0.005429  -0.006294   0.009847
     9  H   -0.005429   0.009440   0.582177  -0.047301   0.000367   0.003956
    10  H    0.009440  -0.005429  -0.047301   0.582177   0.003956   0.000367
    11  H    0.009847  -0.006294   0.000367   0.003956   0.575793  -0.042068
    12  H   -0.006294   0.009847   0.003956   0.000367  -0.042068   0.575793
    13  H    0.000367   0.003956   0.009847  -0.006294   0.000124  -0.000074
    14  H    0.003956   0.000367  -0.006294   0.009847  -0.000074   0.000124
    15  H   -0.000113  -0.000113  -0.000016  -0.000016  -0.003714  -0.003714
    16  H   -0.000035   0.004241  -0.000056   0.000105  -0.005986   0.009622
    17  H    0.004241  -0.000035   0.000105  -0.000056   0.009622  -0.005986
    18  H   -0.000016  -0.000016  -0.000113  -0.000113  -0.000000  -0.000000
    19  H   -0.000056   0.000105  -0.000035   0.004241  -0.000027   0.000004
    20  H    0.000105  -0.000056   0.004241  -0.000035   0.000004  -0.000027
              13         14         15         16         17         18
     1  C   -0.002370  -0.002370   0.011569  -0.005268  -0.005268  -0.000715
     2  C   -0.058230  -0.058230  -0.000715  -0.000513  -0.000513   0.011569
     3  C   -0.000321  -0.000321  -0.048112  -0.050119  -0.050119   0.000065
     4  C    0.361439   0.361439   0.000065  -0.000062  -0.000062  -0.048112
     5  C   -0.000057  -0.000057   0.372443   0.365399   0.365399  -0.000003
     6  C   -0.054036  -0.054036  -0.000003  -0.000001  -0.000001   0.372443
     7  H    0.000367   0.003956  -0.000113  -0.000035   0.004241  -0.000016
     8  H    0.003956   0.000367  -0.000113   0.004241  -0.000035  -0.000016
     9  H    0.009847  -0.006294  -0.000016  -0.000056   0.000105  -0.000113
    10  H   -0.006294   0.009847  -0.000016   0.000105  -0.000056  -0.000113
    11  H    0.000124  -0.000074  -0.003714  -0.005986   0.009622  -0.000000
    12  H   -0.000074   0.000124  -0.003714   0.009622  -0.005986  -0.000000
    13  H    0.575793  -0.042068  -0.000000  -0.000027   0.000004  -0.003714
    14  H   -0.042068   0.575793  -0.000000   0.000004  -0.000027  -0.003714
    15  H   -0.000000  -0.000000   0.533332  -0.030894  -0.030894   0.000000
    16  H   -0.000027   0.000004  -0.030894   0.552144  -0.039290  -0.000000
    17  H    0.000004  -0.000027  -0.030894  -0.039290   0.552144  -0.000000
    18  H   -0.003714  -0.003714   0.000000  -0.000000  -0.000000   0.533332
    19  H   -0.005986   0.009622  -0.000000  -0.000000  -0.000000  -0.030894
    20  H    0.009622  -0.005986  -0.000000  -0.000000  -0.000000  -0.030894
              19         20
     1  C   -0.000513  -0.000513
     2  C   -0.005268  -0.005268
     3  C   -0.000062  -0.000062
     4  C   -0.050119  -0.050119
     5  C   -0.000001  -0.000001
     6  C    0.365399   0.365399
     7  H   -0.000056   0.000105
     8  H    0.000105  -0.000056
     9  H   -0.000035   0.004241
    10  H    0.004241  -0.000035
    11  H   -0.000027   0.000004
    12  H    0.000004  -0.000027
    13  H   -0.005986   0.009622
    14  H    0.009622  -0.005986
    15  H   -0.000000  -0.000000
    16  H   -0.000000  -0.000000
    17  H   -0.000000  -0.000000
    18  H   -0.030894  -0.030894
    19  H    0.552144  -0.039290
    20  H   -0.039290   0.552144
 Mulliken charges:
               1
     1  C   -0.395037
     2  C   -0.395037
     3  C   -0.413461
     4  C   -0.413461
     5  C   -0.636679
     6  C   -0.636679
     7  H    0.209379
     8  H    0.209379
     9  H    0.209379
    10  H    0.209379
    11  H    0.212025
    12  H    0.212025
    13  H    0.212025
    14  H    0.212025
    15  H    0.200894
    16  H    0.200737
    17  H    0.200737
    18  H    0.200894
    19  H    0.200737
    20  H    0.200737
 Sum of Mulliken charges =  -0.00000
 Mulliken charges with hydrogens summed into heavy atoms:
               1
     1  C    0.023722
     2  C    0.023722
     3  C    0.010590
     4  C    0.010590
     5  C   -0.034311
     6  C   -0.034311
 Electronic spatial extent (au):  <R**2>=           1133.6033
 Charge=             -0.0000 electrons
 Dipole moment (field-independent basis, Debye):
    X=             -0.0000    Y=              0.0000    Z=              0.0000  Tot=              0.0000
 Quadrupole moment (field-independent basis, Debye-Ang):
   XX=            -42.3102   YY=            -43.5336   ZZ=            -41.2145
   XY=             -0.0168   XZ=              0.0000   YZ=             -0.0000
 Traceless Quadrupole moment (field-independent basis, Debye-Ang):
   XX=              0.0426   YY=             -1.1808   ZZ=              1.1382
   XY=             -0.0168   XZ=              0.0000   YZ=             -0.0000
 Octapole moment (field-independent basis, Debye-Ang**2):
  XXX=             -0.0000  YYY=             -0.0000  ZZZ=              0.0000  XYY=              0.0000
  XXY=              0.0000  XXZ=              0.0000  XZZ=              0.0000  YZZ=             -0.0000
  YYZ=              0.0000  XYZ=              0.0000
 Hexadecapole moment (field-independent basis, Debye-Ang**3):
 XXXX=           -442.7801 YYYY=          -1110.2854 ZZZZ=            -88.1370 XXXY=            257.9925
 XXXZ=              0.0000 YYYX=            273.4723 YYYZ=             -0.0000 ZZZX=             -0.0000
 ZZZY=             -0.0000 XXYY=           -251.7903 XXZZ=            -88.6293 YYZZ=           -189.5150
 XXYZ=             -0.0000 YYXZ=             -0.0000 ZZXY=             91.1252
 N-N= 2.442758588205D+02 E-N=-1.036502729075D+03  KE= 2.358111284520D+02
 PrsmSu:  requested number of processors reduced to:  19 ShMem   1 Linda.
 No NMR shielding tensors so no spin-rotation constants.
 Leave Link  601 at Fri Apr 16 23:01:01 2021, MaxMem=   104857600 cpu:             740.7 elap:              16.0
 (Enter /s/ls4/users/knvvv/bin/g16sse/l801.exe)
 DoSCS=F DFT=T ScalE2(SS,OS)=  1.000000  1.000000
 Range of M.O.s used for correlation:     1   762
 NBasis=   762 NAE=    25 NBE=    25 NFC=     0 NFV=     0
 NROrb=    762 NOA=    25 NOB=    25 NVA=   737 NVB=   737

 **** Warning!!: The largest alpha MO coefficient is  0.29959095D+02

 Leave Link  801 at Fri Apr 16 23:01:01 2021, MaxMem=   104857600 cpu:               4.5 elap:               0.1
 (Enter /s/ls4/users/knvvv/bin/g16sse/l914.exe)
 RHF ground state
 Doing stability rather than CIS.
 Two-electron integrals replicated using symmetry.
 MDV=   104857600 DFT=T DoStab=T Mixed=T DoRPA=F DoScal=F NonHer=F
 Making orbital integer symmetry assigments:
 Orbital symmetries:
       Occupied  (AG) (BU) (AG) (BU) (BU) (AG) (AG) (BU) (AG) (BU)
                 (AG) (BU) (AU) (BG) (AG) (BU) (AU) (BU) (AG) (BG)
                 (BU) (AU) (AG) (BG) (AG)
       Virtual   (AG) (BU) (BU) (AU) (AG) (AG) (BG) (BU) (BG) (BU)
                 (AG) (AU) (AG) (AU) (BU) (BG) (AG) (BU) (AG) (BG)
                 (BU) (AU) (AU) (BU) (AG) (BG) (AU) (BU) (AG) (BU)
                 (BU) (AU) (AG) (BG) (BU) (AG) (BG) (BU) (AG) (BU)
                 (AU) (BG) (AG) (AU) (AG) (AG) (BU) (BG) (BU) (AG)
                 (BU) (BU) (BU) (AG) (BG) (AG) (AU) (AG) (AG) (AU)
                 (BU) (BU) (BU) (AU) (AG) (BG) (BG) (BU) (AG) (AU)
                 (BU) (AG) (AU) (BG) (BG) (AU) (AG) (AU) (BU) (AG)
                 (BG) (BG) (AG) (AU) (BU) (BG) (AG) (BU) (BG) (AU)
                 (BU) (BG) (BU) (AG) (AU) (BU) (AG) (BG) (BU) (AG)
                 (AG) (BU) (AG) (AU) (BU) (AU) (BG) (BU) (AU) (AG)
                 (BU) (AG) (BG) (AU) (AG) (BU) (AG) (BG) (BU) (AG)
                 (BU) (AU) (BG) (AG) (AU) (BU) (BU) (AG) (AG) (BU)
                 (AG) (BG) (AG) (BU) (AU) (BG) (AG) (BG) (AU) (BU)
                 (BU) (AU) (BG) (BU) (AG) (AU) (BU) (BG) (AG) (BG)
                 (BU) (AU) (BU) (AG) (AG) (AU) (AG) (BG) (BU) (BU)
                 (AG) (BU) (BG) (AG) (AU) (AU) (BU) (BG) (AG) (AG)
                 (AU) (AG) (BU) (BG) (AG) (AU) (BU) (BG) (AG) (BU)
                 (BG) (AU) (BU) (AG) (BG) (AU) (AU) (BU) (AU) (BG)
                 (BG) (AU) (BU) (AG) (BG) (BU) (AG) (AG) (AU) (AU)
                 (BG) (BU) (AG) (BG) (AU) (AG) (BU) (BU) (BG) (AG)
                 (BU) (BG) (AU) (AG) (BU) (BU) (AU) (AG) (AU) (BU)
                 (AG) (BU) (BG) (AG) (AU) (BU) (BG) (BG) (AG) (AG)
                 (AU) (BG) (BU) (BU) (AG) (AU) (AG) (BG) (AU) (BU)
                 (BG) (BU) (BU) (AG) (AG) (AU) (BG) (BU) (AU) (AG)
                 (BU) (AG) (BG) (AU) (BG) (BU) (AG) (AG) (AU) (BU)
                 (AG) (BG) (BU) (AG) (AU) (BU) (BG) (BG) (AU) (BU)
                 (AU) (BG) (AG) (BU) (AU) (BU) (AG) (BG) (AG) (AG)
                 (BU) (AU) (AU) (BG) (BU) (AG) (BU) (AG) (BU) (BG)
                 (AG) (BG) (AU) (AU) (AG) (BG) (BU) (AU) (BU) (AG)
                 (AG) (BG) (BG) (AG) (AU) (BU) (BU) (AG) (BU) (BU)
                 (AG) (AU) (BU) (AG) (BG) (AU) (AG) (BU) (AG) (AG)
                 (BG) (BU) (AU) (AG) (BU) (BG) (AG) (BU) (AU) (BU)
                 (BG) (AG) (BG) (AU) (AG) (AU) (BG) (BU) (BU) (AG)
                 (BG) (AU) (AG) (BU) (BG) (AG) (AU) (BU) (BU) (AG)
                 (BU) (AG) (BG) (AU) (AG) (AU) (BG) (BU) (AU) (BG)
                 (BG) (AU) (BU) (AG) (BU) (AG) (AG) (BU) (BU) (AG)
                 (BU) (AG) (BU) (BG) (AU) (AU) (BG) (AU) (BU) (AG)
                 (BG) (AU) (BG) (AU) (BG) (AG) (AU) (BG) (BU) (AG)
                 (BG) (AG) (AU) (BU) (BU) (AU) (BG) (AG) (BU) (AU)
                 (BG) (AU) (AG) (BU) (BG) (BU) (AG) (AU) (BG) (AU)
                 (AG) (BG) (BU) (AU) (BG) (AG) (BG) (AU) (AU) (BU)
                 (AG) (BG) (BU) (BU) (AG) (AU) (BU) (AG) (BG) (BU)
                 (AG) (BU) (AU) (AG) (BG) (AU) (AU) (BU) (BG) (AG)
                 (BU) (AG) (BG) (AG) (BG) (BU) (BU) (AU) (AU) (AG)
                 (BU) (BG) (AG) (BU) (AU) (BG) (AG) (AG) (AU) (BG)
                 (AG) (AU) (BG) (BU) (BU) (AG) (AU) (BG) (BU) (AG)
                 (BU) (AU) (AG) (BU) (AG) (BG) (BU) (BG) (AU) (BG)
                 (BU) (AG) (AU) (AG) (BG) (AU) (BU) (BU) (AG) (AU)
                 (BU) (AG) (BG) (AG) (BU) (AU) (AU) (AG) (BG) (BU)
                 (AG) (BG) (BU) (AG) (BU) (AU) (BU) (AG) (AU) (AG)
                 (BG) (AG) (BU) (AU) (BG) (BG) (BU) (AG) (AU) (BU)
                 (AG) (AU) (AG) (BU) (BG) (BU) (AU) (BG) (AG) (AG)
                 (BU) (BG) (AU) (BU) (AG) (AU) (BU) (BG) (AG) (BG)
                 (BU) (BU) (AU) (AG) (AU) (BG) (AG) (BU) (AG) (BU)
                 (AG) (AU) (BG) (BU) (AG) (AU) (BG) (BU) (BG) (AG)
                 (BU) (AU) (AG) (BG) (AG) (AU) (BG) (BU) (BU) (AU)
                 (AG) (BG) (AU) (AG) (BU) (BU) (AG) (BG) (AU) (BG)
                 (BG) (AG) (BU) (BU) (AG) (AG) (AU) (BU) (AU) (BU)
                 (BG) (AG) (AG) (BU) (AU) (AG) (BU) (AU) (BG) (BU)
                 (BG) (AG) (BG) (BG) (AU) (AU) (BG) (BU) (AU) (AG)
                 (BU) (BG) (AU) (AG) (BU) (AU) (AG) (BU) (AG) (BG)
                 (BU) (BG) (AU) (AG) (BU) (AU) (BG) (BU) (BG) (AG)
                 (AU) (AG) (BU) (AG) (BU) (BG) (AG) (AU) (BU) (AU)
                 (BG) (AG) (BU) (AG) (BU) (AU) (AG) (BU) (AU) (BG)
                 (BG) (AG) (AU) (BU) (BG) (AG) (BU) (BG) (AU) (AG)
                 (BG) (AU) (BU) (AG) (BU) (BU) (AG) (AU) (BU) (AG)
                 (BG) (AU) (BG) (AG) (BU) (BU) (AU) (AG) (BG) (BU)
                 (BU) (AG) (AG) (AU) (BU) (BG) (AG) (BU) (AG) (BU)
                 (AG) (BG) (AU) (AG) (AU) (BU) (BU) (BG) (AG) (AU)
                 (AG) (BU) (BG) (AU) (BU) (AG) (BG) (AU) (BG) (AU)
                 (BG) (AU) (BG) (BU) (AG) (AU) (BG) (BG) (AU) (AG)
                 (BU) (AG) (BU) (AG) (BU) (BU) (AG) (AG) (BU) (AG)
                 (BU) (BU) (AG) (AG) (BU) (AG) (BU)
    24 initial guesses have been made.
 Convergence on wavefunction:    0.001000000000000
 Davidson Disk Diagonalization:  ConvIn= 1.00D-03 SkipCon=T Conv= 1.00D-03.
 Max sub-space:  2000 roots to seek:    24 dimension of matrix:        36850
 Iteration     1 Dimension    24 NMult     0 NNew     24
 Estimated number of processors is:   11
 CISAX will form     1 AO SS matrices at one time.
 NMat=     1 NSing=     1 JSym2X= 2.
 FoFJK:  IHMeth= 1 ICntrl=       0 DoSepK=F KAlg= 0 I1Cent=           0 FoldK=F
 IRaf= 870000000 NMat=       1 IRICut=       1 DoRegI=T DoRafI=F ISym2E= 2 IDoP0=0 IntGTp=1.
 FoFCou: FMM=F IPFlag=           0 FMFlag=      100000 FMFlg1=           0
         NFxFlg=           0 DoJE=F BraDBF=F KetDBF=F FulRan=T
         wScrn=  0.000000 ICntrl=         0 IOpCl=  0 I1Cent=           0 NGrid=           0
         NMat0=    1 NMatS0=      1 NMatT0=    0 NMatD0=    1 NMtDS0=    0 NMtDT0=    0
 Integrals replicated using symmetry in FoFCou.
 CoulSu:  requested number of processors reduced to:  15 ShMem   1 Linda.
 CalDSu:  requested number of processors reduced to:  34 ShMem   1 Linda.
 NMat=     1 NSing=     1 JSym2X= 2.
 CoulSu:  requested number of processors reduced to:  15 ShMem   1 Linda.
 CalDSu:  requested number of processors reduced to:  34 ShMem   1 Linda.
 NMat=     1 NSing=     1 JSym2X= 2.
 CoulSu:  requested number of processors reduced to:  15 ShMem   1 Linda.
 CalDSu:  requested number of processors reduced to:  34 ShMem   1 Linda.
 NMat=     1 NSing=     1 JSym2X= 2.
 CoulSu:  requested number of processors reduced to:  15 ShMem   1 Linda.
 CalDSu:  requested number of processors reduced to:  34 ShMem   1 Linda.
 NMat=     1 NSing=     1 JSym2X= 2.
 CoulSu:  requested number of processors reduced to:  15 ShMem   1 Linda.
 CalDSu:  requested number of processors reduced to:  34 ShMem   1 Linda.
 NMat=     1 NSing=     1 JSym2X= 2.
 CoulSu:  requested number of processors reduced to:  15 ShMem   1 Linda.
 CalDSu:  requested number of processors reduced to:  34 ShMem   1 Linda.
 NMat=     1 NSing=     1 JSym2X= 2.
 CoulSu:  requested number of processors reduced to:  15 ShMem   1 Linda.
 CalDSu:  requested number of processors reduced to:  34 ShMem   1 Linda.
 NMat=     1 NSing=     1 JSym2X= 2.
 CoulSu:  requested number of processors reduced to:  15 ShMem   1 Linda.
 CalDSu:  requested number of processors reduced to:  34 ShMem   1 Linda.
 NMat=     1 NSing=     1 JSym2X= 2.
 CoulSu:  requested number of processors reduced to:  15 ShMem   1 Linda.
 CalDSu:  requested number of processors reduced to:  34 ShMem   1 Linda.
 NMat=     1 NSing=     1 JSym2X= 2.
 CoulSu:  requested number of processors reduced to:  15 ShMem   1 Linda.
 CalDSu:  requested number of processors reduced to:  34 ShMem   1 Linda.
 NMat=     1 NSing=     1 JSym2X= 2.
 CoulSu:  requested number of processors reduced to:  15 ShMem   1 Linda.
 CalDSu:  requested number of processors reduced to:  34 ShMem   1 Linda.
 NMat=     1 NSing=     1 JSym2X= 2.
 CoulSu:  requested number of processors reduced to:  15 ShMem   1 Linda.
 CalDSu:  requested number of processors reduced to:  34 ShMem   1 Linda.
 NMat=     1 NSing=     0 JSym2X= 2.
 CoulSu:  requested number of processors reduced to:  15 ShMem   1 Linda.
 CalDSu:  requested number of processors reduced to:  34 ShMem   1 Linda.
 NMat=     1 NSing=     0 JSym2X= 2.
 CoulSu:  requested number of processors reduced to:  15 ShMem   1 Linda.
 CalDSu:  requested number of processors reduced to:  34 ShMem   1 Linda.
 NMat=     1 NSing=     0 JSym2X= 2.
 CoulSu:  requested number of processors reduced to:  15 ShMem   1 Linda.
 CalDSu:  requested number of processors reduced to:  34 ShMem   1 Linda.
 NMat=     1 NSing=     0 JSym2X= 2.
 CoulSu:  requested number of processors reduced to:  15 ShMem   1 Linda.
 CalDSu:  requested number of processors reduced to:  34 ShMem   1 Linda.
 NMat=     1 NSing=     0 JSym2X= 2.
 CoulSu:  requested number of processors reduced to:  15 ShMem   1 Linda.
 CalDSu:  requested number of processors reduced to:  34 ShMem   1 Linda.
 NMat=     1 NSing=     0 JSym2X= 2.
 CoulSu:  requested number of processors reduced to:  15 ShMem   1 Linda.
 CalDSu:  requested number of processors reduced to:  34 ShMem   1 Linda.
 NMat=     1 NSing=     0 JSym2X= 2.
 CoulSu:  requested number of processors reduced to:  15 ShMem   1 Linda.
 CalDSu:  requested number of processors reduced to:  34 ShMem   1 Linda.
 NMat=     1 NSing=     0 JSym2X= 2.
 CoulSu:  requested number of processors reduced to:  15 ShMem   1 Linda.
 CalDSu:  requested number of processors reduced to:  34 ShMem   1 Linda.
 NMat=     1 NSing=     0 JSym2X= 2.
 CoulSu:  requested number of processors reduced to:  15 ShMem   1 Linda.
 CalDSu:  requested number of processors reduced to:  34 ShMem   1 Linda.
 NMat=     1 NSing=     0 JSym2X= 2.
 CoulSu:  requested number of processors reduced to:  15 ShMem   1 Linda.
 CalDSu:  requested number of processors reduced to:  34 ShMem   1 Linda.
 NMat=     1 NSing=     0 JSym2X= 2.
 CoulSu:  requested number of processors reduced to:  15 ShMem   1 Linda.
 CalDSu:  requested number of processors reduced to:  34 ShMem   1 Linda.
 NMat=     1 NSing=     0 JSym2X= 2.
 CoulSu:  requested number of processors reduced to:  15 ShMem   1 Linda.
 CalDSu:  requested number of processors reduced to:  34 ShMem   1 Linda.
 New state      1 was old state      2
 Excitation Energies [eV] at current iteration:
 Root      1 :     8.751432524667676
 Root      2 :     8.842182385347918
 Root      3 :     9.169954326633526
 Root      4 :     9.257181837946675
 Root      5 :     9.269425806571334
 Root      6 :     9.325880994163095
 Root      7 :     9.343371627858057
 Root      8 :     9.345068766377134
 Root      9 :     9.358695210279134
 Root     10 :     9.380600945498868
 Root     11 :     9.417263463052452
 Root     12 :     9.423975553884238
 Root     13 :     9.532344391736846
 Root     14 :     9.727440672296858
 Root     15 :     9.872461520259016
 Root     16 :     9.928264660756268
 Root     17 :     9.944464807403509
 Root     18 :     9.947689063000908
 Root     19 :     9.962973577098991
 Root     20 :    10.005327360443400
 Root     21 :    10.014920143177140
 Root     22 :    10.079137056222810
 Root     23 :    10.079504511614560
 Root     24 :    10.115742681618660
 Iteration     2 Dimension    48 NMult    24 NNew     24
 Estimated number of processors is:   11
 CISAX will form     1 AO SS matrices at one time.
 NMat=     1 NSing=     1 JSym2X= 2.
 CoulSu:  requested number of processors reduced to:  15 ShMem   1 Linda.
 CalDSu:  requested number of processors reduced to:  34 ShMem   1 Linda.
 NMat=     1 NSing=     1 JSym2X= 2.
 CoulSu:  requested number of processors reduced to:  15 ShMem   1 Linda.
 CalDSu:  requested number of processors reduced to:  34 ShMem   1 Linda.
 NMat=     1 NSing=     1 JSym2X= 2.
 CoulSu:  requested number of processors reduced to:  15 ShMem   1 Linda.
 CalDSu:  requested number of processors reduced to:  34 ShMem   1 Linda.
 NMat=     1 NSing=     1 JSym2X= 2.
 CoulSu:  requested number of processors reduced to:  15 ShMem   1 Linda.
 CalDSu:  requested number of processors reduced to:  34 ShMem   1 Linda.
 NMat=     1 NSing=     1 JSym2X= 2.
 CoulSu:  requested number of processors reduced to:  15 ShMem   1 Linda.
 CalDSu:  requested number of processors reduced to:  34 ShMem   1 Linda.
 NMat=     1 NSing=     1 JSym2X= 2.
 CoulSu:  requested number of processors reduced to:  15 ShMem   1 Linda.
 CalDSu:  requested number of processors reduced to:  34 ShMem   1 Linda.
 NMat=     1 NSing=     1 JSym2X= 2.
 CoulSu:  requested number of processors reduced to:  15 ShMem   1 Linda.
 CalDSu:  requested number of processors reduced to:  34 ShMem   1 Linda.
 NMat=     1 NSing=     1 JSym2X= 2.
 CoulSu:  requested number of processors reduced to:  15 ShMem   1 Linda.
 CalDSu:  requested number of processors reduced to:  34 ShMem   1 Linda.
 NMat=     1 NSing=     1 JSym2X= 2.
 CoulSu:  requested number of processors reduced to:  15 ShMem   1 Linda.
 CalDSu:  requested number of processors reduced to:  34 ShMem   1 Linda.
 NMat=     1 NSing=     1 JSym2X= 2.
 CoulSu:  requested number of processors reduced to:  15 ShMem   1 Linda.
 CalDSu:  requested number of processors reduced to:  34 ShMem   1 Linda.
 NMat=     1 NSing=     1 JSym2X= 2.
 CoulSu:  requested number of processors reduced to:  15 ShMem   1 Linda.
 CalDSu:  requested number of processors reduced to:  34 ShMem   1 Linda.
 NMat=     1 NSing=     1 JSym2X= 2.
 CoulSu:  requested number of processors reduced to:  15 ShMem   1 Linda.
 CalDSu:  requested number of processors reduced to:  34 ShMem   1 Linda.
 NMat=     1 NSing=     0 JSym2X= 2.
 CoulSu:  requested number of processors reduced to:  15 ShMem   1 Linda.
 CalDSu:  requested number of processors reduced to:  34 ShMem   1 Linda.
 NMat=     1 NSing=     0 JSym2X= 2.
 CoulSu:  requested number of processors reduced to:  15 ShMem   1 Linda.
 CalDSu:  requested number of processors reduced to:  34 ShMem   1 Linda.
 NMat=     1 NSing=     0 JSym2X= 2.
 CoulSu:  requested number of processors reduced to:  15 ShMem   1 Linda.
 CalDSu:  requested number of processors reduced to:  34 ShMem   1 Linda.
 NMat=     1 NSing=     0 JSym2X= 2.
 CoulSu:  requested number of processors reduced to:  15 ShMem   1 Linda.
 CalDSu:  requested number of processors reduced to:  34 ShMem   1 Linda.
 NMat=     1 NSing=     0 JSym2X= 2.
 CoulSu:  requested number of processors reduced to:  15 ShMem   1 Linda.
 CalDSu:  requested number of processors reduced to:  34 ShMem   1 Linda.
 NMat=     1 NSing=     0 JSym2X= 2.
 CoulSu:  requested number of processors reduced to:  15 ShMem   1 Linda.
 CalDSu:  requested number of processors reduced to:  34 ShMem   1 Linda.
 NMat=     1 NSing=     0 JSym2X= 2.
 CoulSu:  requested number of processors reduced to:  15 ShMem   1 Linda.
 CalDSu:  requested number of processors reduced to:  34 ShMem   1 Linda.
 NMat=     1 NSing=     0 JSym2X= 2.
 CoulSu:  requested number of processors reduced to:  15 ShMem   1 Linda.
 CalDSu:  requested number of processors reduced to:  34 ShMem   1 Linda.
 NMat=     1 NSing=     0 JSym2X= 2.
 CoulSu:  requested number of processors reduced to:  15 ShMem   1 Linda.
 CalDSu:  requested number of processors reduced to:  34 ShMem   1 Linda.
 NMat=     1 NSing=     0 JSym2X= 2.
 CoulSu:  requested number of processors reduced to:  15 ShMem   1 Linda.
 CalDSu:  requested number of processors reduced to:  34 ShMem   1 Linda.
 NMat=     1 NSing=     0 JSym2X= 2.
 CoulSu:  requested number of processors reduced to:  15 ShMem   1 Linda.
 CalDSu:  requested number of processors reduced to:  34 ShMem   1 Linda.
 NMat=     1 NSing=     0 JSym2X= 2.
 CoulSu:  requested number of processors reduced to:  15 ShMem   1 Linda.
 CalDSu:  requested number of processors reduced to:  34 ShMem   1 Linda.
 Root      1 not converged, maximum delta is    0.101227925458163
 Excitation Energies [eV] at current iteration:
 Root      1 :     8.533983734623881   Change is   -0.217448790043795
 Root      2 :     8.708093178369278   Change is   -0.134089206978640
 Root      3 :     8.819800691739561   Change is   -0.449625114831773
 Root      4 :     8.860668265011096   Change is   -0.396513572935579
 Root      5 :     8.882686993177265   Change is   -0.462381773199869
 Root      6 :     8.986148083964379   Change is   -0.183806242669148
 Root      7 :     9.108280760573539   Change is   -0.424063631163306
 Root      8 :     9.110392337652796   Change is   -0.215488656510298
 Root      9 :     9.164678938408544   Change is   -0.178692689449512
 Root     10 :     9.166068750240598   Change is   -0.192626460038536
 Root     11 :     9.171978335637363   Change is   -0.208622609861505
 Root     12 :     9.283016879902670   Change is   -0.140958673981570
 Root     13 :     9.306354821255699   Change is   -0.110908641796754
 Root     14 :     9.404505145882315   Change is   -0.674999365732248
 Root     15 :     9.458639990575440   Change is   -0.268800681721418
 Root     16 :     9.476938057541933   Change is   -0.467526749861576
[...]
 Alpha virt. eigenvalues --    1.08757   1.09135   1.12382   1.13982   1.14620
 Alpha virt. eigenvalues --    1.16786   1.18247   1.19623   1.21401   1.21417
 Alpha virt. eigenvalues --    1.22145   1.22632   1.22976   1.26292   1.26317
 Alpha virt. eigenvalues --    1.27790   1.29382   1.29517   1.31370   1.32831
 Alpha virt. eigenvalues --    1.34805   1.34836   1.36830   1.37200   1.38089
 Alpha virt. eigenvalues --    1.39575   1.43535   1.43864   1.45346   1.46074
 Alpha virt. eigenvalues --    1.47726   1.48370   1.49488   1.49580   1.52888
 Alpha virt. eigenvalues --    1.53177   1.54288   1.56709   1.57457   1.59694
 Alpha virt. eigenvalues --    1.61990   1.62623   1.63910   1.64566   1.67264
 Alpha virt. eigenvalues --    1.69428   1.79096   1.81435   1.82051   1.83852
 Alpha virt. eigenvalues --    1.86997   1.87886   1.88109   1.88516   1.89341
 Alpha virt. eigenvalues --    1.92825   1.92855   1.94453   1.95119   1.96703
 Alpha virt. eigenvalues --    1.98000   1.99937   1.99971   2.01235   2.01378
 Alpha virt. eigenvalues --    2.01608   2.01725   2.02108   2.04057   2.04142
 Alpha virt. eigenvalues --    2.04662   2.06799   2.07654   2.08211   2.08698
 Alpha virt. eigenvalues --    2.10843   2.10878   2.11169   2.11686   2.11958
 Alpha virt. eigenvalues --    2.12843   2.13182   2.13411   2.13785   2.14734
 Alpha virt. eigenvalues --    2.15035   2.15925   2.16297   2.18260   2.18698
 Alpha virt. eigenvalues --    2.19137   2.19885   2.20804   2.21470   2.22849
 Alpha virt. eigenvalues --    2.24366   2.25770   2.26213   2.28659   2.30651
 Alpha virt. eigenvalues --    2.32296   2.32953   2.35947   2.36916   2.37552
 Alpha virt. eigenvalues --    2.38441   2.39526   2.40032   2.41746   2.43846
 Alpha virt. eigenvalues --    2.43942   2.44124   2.45896   2.47659   2.49742
 Alpha virt. eigenvalues --    2.50350   2.51571   2.52238   2.53483   2.54271
 Alpha virt. eigenvalues --    2.55261   2.57484   2.58585   2.59882   2.60046
 Alpha virt. eigenvalues --    2.60983   2.62109   2.63550   2.67098   2.67914
 Alpha virt. eigenvalues --    2.67975   2.68029   2.71007   2.71780   2.73127
 Alpha virt. eigenvalues --    2.73849   2.74136   2.74949   2.77761   2.79046
 Alpha virt. eigenvalues --    2.79299   2.80092   2.80447   2.82096   2.83159
 Alpha virt. eigenvalues --    2.84875   2.85238   2.85617   2.86813   2.87282
 Alpha virt. eigenvalues --    2.87520   2.90369   2.90940   2.91200   2.91511
 Alpha virt. eigenvalues --    2.92019   2.92144   2.92395   2.95036   2.96220
 Alpha virt. eigenvalues --    2.97389   2.98022   2.99111   3.00650   3.02606
 Alpha virt. eigenvalues --    3.03625   3.04292   3.05449   3.05832   3.05998
 Alpha virt. eigenvalues --    3.08244   3.09690   3.12054   3.12172   3.12614
 Alpha virt. eigenvalues --    3.13285   3.14847   3.16522   3.19819   3.21673
 Alpha virt. eigenvalues --    3.23246   3.24728   3.26222   3.27268   3.27465
 Alpha virt. eigenvalues --    3.30719   3.30740   3.31308   3.32587   3.34294
 Alpha virt. eigenvalues --    3.34394   3.37338   3.37817   3.40168   3.40576
 Alpha virt. eigenvalues --    3.40891   3.42217   3.45965   3.45989   3.52294
 Alpha virt. eigenvalues --    3.53095   3.53696   3.53799   3.55364   3.58552
 Alpha virt. eigenvalues --    3.59178   3.60694   3.61071   3.64733   3.66391
 Alpha virt. eigenvalues --    3.68036   3.71846   3.71900   3.74171   3.76628
 Alpha virt. eigenvalues --    3.77810   3.78994   3.79594   3.81032   3.82546
 Alpha virt. eigenvalues --    3.82821   3.85179   3.86944   3.88972   3.89150
 Alpha virt. eigenvalues --    3.89153   3.89604   3.89966   3.90492   3.96033
 Alpha virt. eigenvalues --    3.96615   3.98943   3.99418   4.01474   4.03435
 Alpha virt. eigenvalues --    4.04815   4.08606   4.10085   4.10262   4.15969
 Alpha virt. eigenvalues --    4.17163   4.18311   4.18863   4.22922   4.24321
 Alpha virt. eigenvalues --    4.28410   4.31072   4.31366   4.34225   4.64711
 Alpha virt. eigenvalues --    4.68654   4.69015   4.74436   4.74843   4.91349
 Alpha virt. eigenvalues --    4.96258   5.03842   5.04905   5.06621   5.07934
 Alpha virt. eigenvalues --    5.13342   5.17210   5.23839   5.24819   5.25869
 Alpha virt. eigenvalues --    5.29474   5.32630   5.36835   5.40098   5.40829
 Alpha virt. eigenvalues --    5.41184   5.43665   5.44680   5.44844   5.47401
 Alpha virt. eigenvalues --    5.49051   5.49829   5.50359   5.53631   5.59445
 Alpha virt. eigenvalues --    5.61795   5.63401   5.66126   5.67848   5.68671
 Alpha virt. eigenvalues --    5.70005   5.70680   5.70841   5.72353   5.72565
 Alpha virt. eigenvalues --    5.74874   5.74960   5.76958   5.77449   5.77608
 Alpha virt. eigenvalues --    5.79361   5.79646   5.81207   5.81450   5.82204
 Alpha virt. eigenvalues --    5.83229   5.83491   5.83856   5.84650   5.86039
 Alpha virt. eigenvalues --    5.88081   5.89289   5.91253   5.92003   5.93234
 Alpha virt. eigenvalues --    5.93442   5.95255   5.96019   5.98802   5.99961
 Alpha virt. eigenvalues --    6.01808   6.02476   6.03159   6.03391   6.05716
 Alpha virt. eigenvalues --    6.06265   6.06507   6.06909   6.09380   6.09470
 Alpha virt. eigenvalues --    6.09752   6.11302   6.12083   6.13215   6.14320
 Alpha virt. eigenvalues --    6.14970   6.15763   6.17367   6.18431   6.20683
 Alpha virt. eigenvalues --    6.22836   6.23368   6.23748   6.24556   6.24975
 Alpha virt. eigenvalues --    6.25573   6.25904   6.28051   6.28646   6.32192
 Alpha virt. eigenvalues --    6.33409   6.33409   6.34426   6.35178   6.36920
 Alpha virt. eigenvalues --    6.38323   6.38749   6.39862   6.41063   6.41581
 Alpha virt. eigenvalues --    6.44959   6.45785   6.47064   6.48268   6.48557
 Alpha virt. eigenvalues --    6.49693   6.49744   6.55330   6.55523   6.56733
 Alpha virt. eigenvalues --    6.56848   6.58882   6.60095   6.60925   6.63080
 Alpha virt. eigenvalues --    6.64697   6.64999   6.67567   6.68031   6.70813
 Alpha virt. eigenvalues --    6.73251   6.73479   6.74574   6.75947   6.78873
 Alpha virt. eigenvalues --    6.79482   6.83471   6.83948   6.85079   6.85994
 Alpha virt. eigenvalues --    6.87592   6.88896   6.89538   6.89575   6.93462
 Alpha virt. eigenvalues --    6.95303   6.97446   6.97513   6.98570   7.03788
 Alpha virt. eigenvalues --    7.05056   7.06959   7.09109   7.10004   7.10739
 Alpha virt. eigenvalues --    7.13268   7.17244   7.19494   7.19995   7.20028
 Alpha virt. eigenvalues --    7.23817   7.24869   7.25993   7.26542   7.29143
 Alpha virt. eigenvalues --    7.29478   7.29525   7.30211   7.32413   7.33986
 Alpha virt. eigenvalues --    7.34542   7.36096   7.37876   7.38103   7.40036
 Alpha virt. eigenvalues --    7.40349   7.40802   7.40926   7.42694   7.43886
 Alpha virt. eigenvalues --    7.46789   7.47484   7.50191   7.50572   7.51302
 Alpha virt. eigenvalues --    7.52084   7.52112   7.52868   7.54223   7.54242
 Alpha virt. eigenvalues --    7.54682   7.56081   7.56194   7.61092   7.62175
 Alpha virt. eigenvalues --    7.62523   7.63021   7.64416   7.67009   7.67149
 Alpha virt. eigenvalues --    7.67632   7.68482   7.69398   7.69673   7.70666
 Alpha virt. eigenvalues --    7.70908   7.73329   7.74348   7.75050   7.77101
 Alpha virt. eigenvalues --    7.77408   7.78132   7.79547   7.79856   7.80701
 Alpha virt. eigenvalues --    7.81637   7.82004   7.82327   7.85866   7.85942
 Alpha virt. eigenvalues --    7.86748   7.90419   7.92191   7.92845   7.93282
 Alpha virt. eigenvalues --    7.95270   7.98934   7.99173   8.01047   8.02698
 Alpha virt. eigenvalues --    8.06209   8.07589   8.11300   8.14034   8.15071
 Alpha virt. eigenvalues --    8.17140   8.18339   8.18383   8.18621   8.20710
 Alpha virt. eigenvalues --    8.20747   8.21692   8.22717   8.23017   8.23436
 Alpha virt. eigenvalues --    8.25149   8.26298   8.26330   8.26758   8.26955
 Alpha virt. eigenvalues --    8.28300   8.30226   8.31195   8.31935   8.32418
 Alpha virt. eigenvalues --    8.33257   8.34275   8.36110   8.36651   8.37027
 Alpha virt. eigenvalues --    8.37716   8.40534   8.42438   8.44908   8.47712
 Alpha virt. eigenvalues --    8.49337   8.49966   8.51427   8.52951   8.53902
 Alpha virt. eigenvalues --    8.53925   8.55484   8.57439   8.61932   8.62818
 Alpha virt. eigenvalues --    8.66573   8.67518   8.67561   8.68745   8.71542
 Alpha virt. eigenvalues --    8.71937   8.72359   8.74780   8.77753   8.79881
 Alpha virt. eigenvalues --    8.79996   8.82645   8.82865   8.83041   8.83100
 Alpha virt. eigenvalues --    8.83954   8.86251   8.90941   8.91587   8.92451
 Alpha virt. eigenvalues --    8.94791   8.97105   9.01798   9.01975   9.02531
 Alpha virt. eigenvalues --    9.04232   9.08407   9.10483   9.18571   9.30099
 Alpha virt. eigenvalues --    9.35254   9.37258   9.41557   9.46718   9.47267
 Alpha virt. eigenvalues --    9.47434   9.50226   9.50279   9.53082   9.54369
 Alpha virt. eigenvalues --    9.54712   9.56848   9.57526   9.58283   9.59183
 Alpha virt. eigenvalues --    9.62038   9.62522   9.66408   9.67710   9.67954
 Alpha virt. eigenvalues --    9.69018   9.71343   9.78371   9.80712   9.86580
 Alpha virt. eigenvalues --    9.89689   9.89875   9.92189   9.93321   9.93839
 Alpha virt. eigenvalues --    9.96638   9.97392   9.98836  10.04664  10.07160
 Alpha virt. eigenvalues --   10.07366  10.09838  10.11658  10.12111  10.12725
 Alpha virt. eigenvalues --   10.15564  10.20813  10.25930  10.26125  10.36669
 Alpha virt. eigenvalues --   10.37045  11.68222  11.72355  11.87289  11.87530
 Alpha virt. eigenvalues --   11.95988  12.01803  12.04050  12.05146  12.81031
 Alpha virt. eigenvalues --   12.83186  12.87498  12.97364  13.06852  13.07593
 Alpha virt. eigenvalues --   29.02597  29.05694  29.09655  29.16020  29.21068
 Alpha virt. eigenvalues --   29.22696 146.53247 146.58930 146.62037 146.66911
 Alpha virt. eigenvalues --  146.73391 146.75700
          Condensed to atoms (all electrons):
               1          2          3          4          5          6
     1  C    5.438361   0.290755   0.316843  -0.065790  -0.068974   0.007629
     2  C    0.290755   5.438361  -0.065790   0.316843   0.007629  -0.068974
     3  C    0.316843  -0.065790   5.370847   0.008584   0.326428  -0.001226
     4  C   -0.065790   0.316843   0.008584   5.370847  -0.001226   0.326428
     5  C   -0.068974   0.007629   0.326428  -0.001226   5.380319   0.000058
     6  C    0.007629  -0.068974  -0.001226   0.326428   0.000058   5.380319
     7  H    0.358019  -0.058958  -0.055851  -0.002176  -0.001072  -0.000231
     8  H    0.358019  -0.058958  -0.055851  -0.002176  -0.001072  -0.000231
     9  H   -0.058958   0.358019  -0.002176  -0.055851  -0.000231  -0.001072
    10  H   -0.058958   0.358019  -0.002176  -0.055851  -0.000231  -0.001072
    11  H   -0.058230  -0.002370   0.361439  -0.000321  -0.054036  -0.000057
    12  H   -0.058230  -0.002370   0.361439  -0.000321  -0.054036  -0.000057
    13  H   -0.002370  -0.058230  -0.000321   0.361439  -0.000057  -0.054036
    14  H   -0.002370  -0.058230  -0.000321   0.361439  -0.000057  -0.054036
    15  H    0.011569  -0.000715  -0.048112   0.000065   0.372443  -0.000003
    16  H   -0.005268  -0.000513  -0.050119  -0.000062   0.365399  -0.000001
    17  H   -0.005268  -0.000513  -0.050119  -0.000062   0.365399  -0.000001
    18  H   -0.000715   0.011569   0.000065  -0.048112  -0.000003   0.372443
    19  H   -0.000513  -0.005268  -0.000062  -0.050119  -0.000001   0.365399
    20  H   -0.000513  -0.005268  -0.000062  -0.050119  -0.000001   0.365399
               7          8          9         10         11         12
     1  C    0.358019   0.358019  -0.058958  -0.058958  -0.058230  -0.058230
     2  C   -0.058958  -0.058958   0.358019   0.358019  -0.002370  -0.002370
     3  C   -0.055851  -0.055851  -0.002176  -0.002176   0.361439   0.361439
     4  C   -0.002176  -0.002176  -0.055851  -0.055851  -0.000321  -0.000321
     5  C   -0.001072  -0.001072  -0.000231  -0.000231  -0.054036  -0.054036
     6  C   -0.000231  -0.000231  -0.001072  -0.001072  -0.000057  -0.000057
     7  H    0.582177  -0.047301  -0.005429   0.009440   0.009847  -0.006294
     8  H   -0.047301   0.582177   0.009440  -0.005429  -0.006294   0.009847
     9  H   -0.005429   0.009440   0.582177  -0.047301   0.000367   0.003956
    10  H    0.009440  -0.005429  -0.047301   0.582177   0.003956   0.000367
    11  H    0.009847  -0.006294   0.000367   0.003956   0.575793  -0.042068
    12  H   -0.006294   0.009847   0.003956   0.000367  -0.042068   0.575793
    13  H    0.000367   0.003956   0.009847  -0.006294   0.000124  -0.000074
    14  H    0.003956   0.000367  -0.006294   0.009847  -0.000074   0.000124
    15  H   -0.000113  -0.000113  -0.000016  -0.000016  -0.003714  -0.003714
    16  H   -0.000035   0.004241  -0.000056   0.000105  -0.005986   0.009622
    17  H    0.004241  -0.000035   0.000105  -0.000056   0.009622  -0.005986
    18  H   -0.000016  -0.000016  -0.000113  -0.000113  -0.000000  -0.000000
    19  H   -0.000056   0.000105  -0.000035   0.004241  -0.000027   0.000004
    20  H    0.000105  -0.000056   0.004241  -0.000035   0.000004  -0.000027
              13         14         15         16         17         18
     1  C   -0.002370  -0.002370   0.011569  -0.005268  -0.005268  -0.000715
     2  C   -0.058230  -0.058230  -0.000715  -0.000513  -0.000513   0.011569
     3  C   -0.000321  -0.000321  -0.048112  -0.050119  -0.050119   0.000065
     4  C    0.361439   0.361439   0.000065  -0.000062  -0.000062  -0.048112
     5  C   -0.000057  -0.000057   0.372443   0.365399   0.365399  -0.000003
     6  C   -0.054036  -0.054036  -0.000003  -0.000001  -0.000001   0.372443
     7  H    0.000367   0.003956  -0.000113  -0.000035   0.004241  -0.000016
     8  H    0.003956   0.000367  -0.000113   0.004241  -0.000035  -0.000016
     9  H    0.009847  -0.006294  -0.000016  -0.000056   0.000105  -0.000113
    10  H   -0.006294   0.009847  -0.000016   0.000105  -0.000056  -0.000113
    11  H    0.000124  -0.000074  -0.003714  -0.005986   0.009622  -0.000000
    12  H   -0.000074   0.000124  -0.003714   0.009622  -0.005986  -0.000000
    13  H    0.575793  -0.042068  -0.000000  -0.000027   0.000004  -0.003714
    14  H   -0.042068   0.575793  -0.000000   0.000004  -0.000027  -0.003714
    15  H   -0.000000  -0.000000   0.533332  -0.030894  -0.030894   0.000000
    16  H   -0.000027   0.000004  -0.030894   0.552144  -0.039290  -0.000000
    17  H    0.000004  -0.000027  -0.030894  -0.039290   0.552144  -0.000000
    18  H   -0.003714  -0.003714   0.000000  -0.000000  -0.000000   0.533332
    19  H   -0.005986   0.009622  -0.000000  -0.000000  -0.000000  -0.030894
    20  H    0.009622  -0.005986  -0.000000  -0.000000  -0.000000  -0.030894
              19         20
     1  C   -0.000513  -0.000513
     2  C   -0.005268  -0.005268
     3  C   -0.000062  -0.000062
     4  C   -0.050119  -0.050119
     5  C   -0.000001  -0.000001
     6  C    0.365399   0.365399
     7  H   -0.000056   0.000105
     8  H    0.000105  -0.000056
     9  H   -0.000035   0.004241
    10  H    0.004241  -0.000035
    11  H   -0.000027   0.000004
    12  H    0.000004  -0.000027
    13  H   -0.005986   0.009622
    14  H    0.009622  -0.005986
    15  H   -0.000000  -0.000000
    16  H   -0.000000  -0.000000
    17  H   -0.000000  -0.000000
    18  H   -0.030894  -0.030894
    19  H    0.552144  -0.039290
    20  H   -0.039290   0.552144
 Mulliken charges:
               1
     1  C   -0.395037
     2  C   -0.395037
     3  C   -0.413461
     4  C   -0.413461
     5  C   -0.636679
     6  C   -0.636679
     7  H    0.209379
     8  H    0.209379
     9  H    0.209379
    10  H    0.209379
    11  H    0.212025
    12  H    0.212025
    13  H    0.212025
    14  H    0.212025
    15  H    0.200894
    16  H    0.200737
    17  H    0.200737
    18  H    0.200894
    19  H    0.200737
    20  H    0.200737
 Sum of Mulliken charges =  -0.00000
 Mulliken charges with hydrogens summed into heavy atoms:
               1
     1  C    0.023722
     2  C    0.023722
     3  C    0.010590
     4  C    0.010590
     5  C   -0.034311
     6  C   -0.034311
 Electronic spatial extent (au):  <R**2>=           1133.6033
 Charge=             -0.0000 electrons
 Dipole moment (field-independent basis, Debye):
    X=             -0.0000    Y=              0.0000    Z=              0.0000  Tot=              0.0000
 Quadrupole moment (field-independent basis, Debye-Ang):
   XX=            -42.3102   YY=            -43.5336   ZZ=            -41.2145
   XY=             -0.0168   XZ=              0.0000   YZ=             -0.0000
 Traceless Quadrupole moment (field-independent basis, Debye-Ang):
   XX=              0.0426   YY=             -1.1808   ZZ=              1.1382
   XY=             -0.0168   XZ=              0.0000   YZ=             -0.0000
 Octapole moment (field-independent basis, Debye-Ang**2):
  XXX=             -0.0000  YYY=             -0.0000  ZZZ=              0.0000  XYY=              0.0000
  XXY=              0.0000  XXZ=              0.0000  XZZ=              0.0000  YZZ=             -0.0000
  YYZ=              0.0000  XYZ=              0.0000
 Hexadecapole moment (field-independent basis, Debye-Ang**3):
 XXXX=           -442.7801 YYYY=          -1110.2854 ZZZZ=            -88.1370 XXXY=            257.9925
 XXXZ=              0.0000 YYYX=            273.4723 YYYZ=             -0.0000 ZZZX=             -0.0000
 ZZZY=             -0.0000 XXYY=           -251.7903 XXZZ=            -88.6293 YYZZ=           -189.5150
 XXYZ=             -0.0000 YYXZ=             -0.0000 ZZXY=             91.1252
 N-N= 2.442758588205D+02 E-N=-1.036502729075D+03  KE= 2.358111284520D+02
 PrsmSu:  requested number of processors reduced to:  19 ShMem   1 Linda.
 No NMR shielding tensors so no spin-rotation constants.
 Leave Link  601 at Sat Apr 17 01:05:35 2021, MaxMem=   104857600 cpu:             710.4 elap:              15.4
 (Enter /s/ls4/users/knvvv/bin/g16sse/l9999.exe)

 Test job not archived.
 1\1\GINC-N181\Stability\RM062X\def2QZVP\C6H14\KNVVV\17-Apr-2021\0\\#P 
 M062X/Def2QZVP Integral=UltraFineGrid SCF=NoSymm Stable=(RExt, Opt) IO
 p(1/33=1)\\Database calculations.\\0,1\C,0,0.6455512305,-0.4075631455,
 0.\C,0,-0.6455512305,0.4075631455,0.\C,0,1.9052446804,0.4555481627,0.\
 C,0,-1.9052446804,-0.4555481627,0.\C,0,3.1888721389,-0.3704591323,0.\C
 ,0,-3.1888721389,0.3704591323,0.\H,0,0.6587912353,-1.0666783809,0.8787
 961139\H,0,0.6587912353,-1.0666783809,-0.8787961139\H,0,-0.6587912353,
 1.0666783809,0.8787961139\H,0,-0.6587912353,1.0666783809,-0.8787961139
 \H,0,1.8904096752,1.1134623977,-0.8780085136\H,0,1.8904096752,1.113462
 3977,0.8780085136\H,0,-1.8904096752,-1.1134623977,-0.8780085136\H,0,-1
 .8904096752,-1.1134623977,0.8780085136\H,0,4.0768974561,0.2685300959,0
 .\H,0,3.2377871564,-1.0138303621,-0.8840485157\H,0,3.2377871564,-1.013
 8303621,0.8840485157\H,0,-4.0768974561,-0.2685300959,0.\H,0,-3.2377871
 564,1.0138303621,-0.8840485157\H,0,-3.2377871564,1.0138303621,0.884048
 5157\\Version=ES64L-G16RevA.03\State=1-AG\HF=-237.0597981\RMSD=2.926e-
 09\Dipole=0.,0.,0.\Quadrupole=-0.6002106,-0.246037,0.8462476,0.4191019
 ,0.,0.\PG=C02H [SGH(C6H2),X(H12)]\\@


 THESE ARE THE TIMES THAT TRY MENS SOULS.
 THE SUMMER SOLDIER AND THE SUNSHINE PATRIOT WILL IN THIS CRISIS,
 SHRINK FROM THE SERVICE OF HIS COUNTRY.  BUT HE THAT STANDS NOW,
 DESERVES THE LOVE AND THANKS OF MAN AND WOMAN.
 TYRANNY, LIKE HELL, IS NOT EASILY CONQUERED,
 YET WE HAVE THIS CONSOLATION WITH US,
 THAT THE HARDER THE CONFLICT, THE MORE GLORIOUS THE TRIUMPH.
 WHAT WE OBTAIN TOO CHEAP, WE ESTEEM TOO LIGHTLY, 
 'TIS DEARNESS ONLY THAT GIVES EVERYTHING ITS VALUE.

                                              -- TOM PAINE
 Job cpu time:       2 days 11 hours 36 minutes  7.3 seconds.
 Elapsed time:       0 days  2 hours 13 minutes 16.2 seconds.
 File lengths (MBytes):  RWF=    941 Int=      0 D2E=      0 Chk=     64 Scr=      1
 Normal termination of Gaussian 16 at Sat Apr 17 01:05:35 2021.
