 Entering Gaussian System, Link 0=/s/ls4/users/knvvv/bin/g16sse/g16
 Input=data/database/M062X--def2-QZVP--MB16-43_F2.gjf
 Output=data/database/M062X--def2-QZVP--MB16-43_F2.log
 Initial command:
 /s/ls4/users/knvvv/bin/g16sse/l1.exe "/s/ls4/users/knvvv/bin/scratch/Gau-16463.inp" -scrdir="/s/ls4/users/knvvv/bin/scratch/"
 Entering Link 1 = /s/ls4/users/knvvv/bin/g16sse/l1.exe PID=     16464.
  
 Copyright (c) 1988,1990,1992,1993,1995,1998,2003,2009,2016,
            Gaussian, Inc.  All Rights Reserved.
  
 This is part of the Gaussian(R) 16 program.  It is based on
 the Gaussian(R) 09 system (copyright 2009, Gaussian, Inc.),
 the Gaussian(R) 03 system (copyright 2003, Gaussian, Inc.),
 the Gaussian(R) 98 system (copyright 1998, Gaussian, Inc.),
 the Gaussian(R) 94 system (copyright 1995, Gaussian, Inc.),
 the Gaussian 92(TM) system (copyright 1992, Gaussian, Inc.),
 the Gaussian 90(TM) system (copyright 1990, Gaussian, Inc.),
 the Gaussian 88(TM) system (copyright 1988, Gaussian, Inc.),
 the Gaussian 86(TM) system (copyright 1986, Carnegie Mellon
 University), and the Gaussian 82(TM) system (copyright 1983,
 Carnegie Mellon University). Gaussian is a federally registered
 trademark of Gaussian, Inc.
  
 This software contains proprietary and confidential information,
 including trade secrets, belonging to Gaussian, Inc.
  
 This software is provided under written license and may be
 used, copied, transmitted, or stored only in accord with that
 written license.
  
 The following legend is applicable only to US Government
 contracts under FAR:
  
                    RESTRICTED RIGHTS LEGEND
  
 Use, reproduction and disclosure by the US Government is
 subject to restrictions as set forth in subparagraphs (a)
 and (c) of the Commercial Computer Software - Restricted
 Rights clause in FAR 52.227-19.
  
 Gaussian, Inc.
 340 Quinnipiac St., Bldg. 40, Wallingford CT 06492
  
  
 ---------------------------------------------------------------
 Warning -- This program may not be used in any manner that
 competes with the business of Gaussian, Inc. or will provide
 assistance to any competitor of Gaussian, Inc.  The licensee
 of this program is prohibited from giving any competitor of
 Gaussian, Inc. access to this program.  By using this program,
 the user acknowledges that Gaussian, Inc. is engaged in the
 business of creating and licensing software in the field of
 computational chemistry and represents and warrants to the
 licensee that it is not a competitor of Gaussian, Inc. and that
 it will not use this program in any manner prohibited above.
 ---------------------------------------------------------------
  

 Cite this work as:
 Gaussian 16, Revision A.03,
 M. J. Frisch, G. W. Trucks, H. B. Schlegel, G. E. Scuseria, 
 M. A. Robb, J. R. Cheeseman, G. Scalmani, V. Barone, 
 G. A. Petersson, H. Nakatsuji, X. Li, M. Caricato, A. V. Marenich, 
 J. Bloino, B. G. Janesko, R. Gomperts, B. Mennucci, H. P. Hratchian, 
 J. V. Ortiz, A. F. Izmaylov, J. L. Sonnenberg, D. Williams-Young, 
 F. Ding, F. Lipparini, F. Egidi, J. Goings, B. Peng, A. Petrone, 
 T. Henderson, D. Ranasinghe, V. G. Zakrzewski, J. Gao, N. Rega, 
 G. Zheng, W. Liang, M. Hada, M. Ehara, K. Toyota, R. Fukuda, 
 J. Hasegawa, M. Ishida, T. Nakajima, Y. Honda, O. Kitao, H. Nakai, 
 T. Vreven, K. Throssell, J. A. Montgomery, Jr., J. E. Peralta, 
 F. Ogliaro, M. J. Bearpark, J. J. Heyd, E. N. Brothers, K. N. Kudin, 
 V. N. Staroverov, T. A. Keith, R. Kobayashi, J. Normand, 
 K. Raghavachari, A. P. Rendell, J. C. Burant, S. S. Iyengar, 
 J. Tomasi, M. Cossi, J. M. Millam, M. Klene, C. Adamo, R. Cammi, 
 J. W. Ochterski, R. L. Martin, K. Morokuma, O. Farkas, 
 J. B. Foresman, and D. J. Fox, Gaussian, Inc., Wallingford CT, 2016.
 
 ******************************************
 Gaussian 16:  ES64L-G16RevA.03 25-Dec-2016
                17-Apr-2021 
 ******************************************
 %RWF=temp3_43902,70GB
 %nprocshared=48
 Will use up to   48 processors via shared memory.
 Default route: MaxDisk=80GB
 ----------------------------------------------------------------------
 #P M062X/Def2QZVP Integral=UltraFineGrid SCF=NoSymm Stable=(RExt, Opt)
  IOp(1/33=1)
 ----------------------------------------------------------------------
 1/33=1,38=1,172=1/1;
 2/12=2,17=6,18=5,40=1/2;
 3/5=45,7=101,11=2,25=1,30=1,74=-55,75=-5/1,2,3;
 4/9=2/1;
 5/5=2,38=5/2;
 6/7=2,8=2,9=2,10=2,28=1/1;
 8/6=1,10=90,11=11/1;
 9/8=-3,42=1,46=1/14;
 5/5=2,8=3,17=40,38=5/8(-2);
 6/7=2,8=2,9=2,10=2,28=1/1;
 99/5=1,9=1/99;
 Leave Link    1 at Sat Apr 17 10:58:08 2021, MaxMem=           0 cpu:               8.6 elap:               0.2
 (Enter /s/ls4/users/knvvv/bin/g16sse/l101.exe)
 ONIOM data not found on unit 2.
 ----------------------
 Database calculations.
 ----------------------
 TstMul:  ICh=     0
 TstMul:  Mul=     1
 TstMul:  ICh=     0
 TstMul:  Mul=     1
 Symbolic Z-matrix:
 Charge =  0 Multiplicity = 1
 F                     0.        0.       -0.7076 
 F                     0.        0.        0.7076 
 
 RdStrC is calling ZToCFu for IStruc=1 NZ=     2.
 PrtBox:  NBox=     1 Levels=  1 BoxLen=    8.00 SMaxX=        2.67
          Shift=            0.000000            0.000000            1.337162
 Box      1 Number                   0 centers from      1 to      2:
 After GenITR:
 ITRead=  0  0
 MicOpt= -1 -1
 ITRead=  0  0
 MicOpt= -1 -1
 NAtoms=      2 NQM=        2 NQMF=       0 NMMI=      0 NMMIF=      0
                NMic=       0 NMicF=      0.
                    Isotopes and Nuclear Properties:
 (Nuclear quadrupole moments (NQMom) in fm**2, nuclear magnetic moments (NMagM)
  in nuclear magnetons)

  Atom         1           2
 IAtWgt=          19          19
 AtmWgt=  18.9984033  18.9984033
 NucSpn=           1           1
 AtZEff=  -0.0000000  -0.0000000
 NQMom=    0.0000000   0.0000000
 NMagM=    2.6288670   2.6288670
 AtZNuc=   9.0000000   9.0000000
 No MM parameters found.
 Leave Link  101 at Sat Apr 17 10:58:08 2021, MaxMem=   104857600 cpu:               8.7 elap:               0.2
 (Enter /s/ls4/users/knvvv/bin/g16sse/l202.exe)
                          Input orientation:                          
 ---------------------------------------------------------------------
 Center     Atomic      Atomic             Coordinates (Angstroms)
 Number     Number       Type             X           Y           Z
 ---------------------------------------------------------------------
      1          9           0        0.000000    0.000000   -0.707596
      2          9           0        0.000000    0.000000    0.707596
 ---------------------------------------------------------------------
 Stoichiometry    F2
 Framework group  D*H[C*(F.F)]
 Deg. of freedom     1
 Full point group                 D*H     NOp   8
 Largest Abelian subgroup         D2H     NOp   8
 Largest concise Abelian subgroup C2      NOp   2
                         Standard orientation:                         
 ---------------------------------------------------------------------
 Center     Atomic      Atomic             Coordinates (Angstroms)
 Number     Number       Type             X           Y           Z
 ---------------------------------------------------------------------
      1          9           0        0.000000    0.000000    0.707596
      2          9           0        0.000000    0.000000   -0.707596
 ---------------------------------------------------------------------
 Rotational constants (GHZ):           0.0000000          26.5643980          26.5643980
 Leave Link  202 at Sat Apr 17 10:58:08 2021, MaxMem=   104857600 cpu:              11.5 elap:               0.3
 (Enter /s/ls4/users/knvvv/bin/g16sse/l301.exe)
 Standard basis: def2QZVP (5D, 7F)
 Ernie: Thresh=  0.10000D-02 Tol=  0.10000D-05 Strict=F.
 There are    32 symmetry adapted cartesian basis functions of AG  symmetry.
 There are     8 symmetry adapted cartesian basis functions of B1G symmetry.
 There are    16 symmetry adapted cartesian basis functions of B2G symmetry.
 There are    16 symmetry adapted cartesian basis functions of B3G symmetry.
 There are     8 symmetry adapted cartesian basis functions of AU  symmetry.
 There are    32 symmetry adapted cartesian basis functions of B1U symmetry.
 There are    16 symmetry adapted cartesian basis functions of B2U symmetry.
 There are    16 symmetry adapted cartesian basis functions of B3U symmetry.
 There are    24 symmetry adapted basis functions of AG  symmetry.
 There are     7 symmetry adapted basis functions of B1G symmetry.
 There are    13 symmetry adapted basis functions of B2G symmetry.
 There are    13 symmetry adapted basis functions of B3G symmetry.
 There are     7 symmetry adapted basis functions of AU  symmetry.
 There are    24 symmetry adapted basis functions of B1U symmetry.
 There are    13 symmetry adapted basis functions of B2U symmetry.
 There are    13 symmetry adapted basis functions of B3U symmetry.
   114 basis functions,   184 primitive gaussians,   144 cartesian basis functions
     9 alpha electrons        9 beta electrons
       nuclear repulsion energy        30.2880346784 Hartrees.
 IExCor= 4336 DFT=T Ex+Corr=M062X ExCW=0 ScaHFX=  0.540000
 ScaDFX=  1.000000  1.000000  1.000000  1.000000 ScalE2=  1.000000  1.000000
 IRadAn=      5 IRanWt=     -1 IRanGd=            0 ICorTp=0 IEmpDi=  4
 NAtoms=    2 NActive=    2 NUniq=    1 SFac= 4.00D+00 NAtFMM=   60 NAOKFM=F Big=F
 Integral buffers will be    131072 words long.
 Raffenetti 2 integral format.
 Two-electron integral symmetry is turned on.
 Leave Link  301 at Sat Apr 17 10:58:09 2021, MaxMem=   104857600 cpu:               6.9 elap:               0.2
 (Enter /s/ls4/users/knvvv/bin/g16sse/l302.exe)
 NPDir=0 NMtPBC=     1 NCelOv=     1 NCel=       1 NClECP=     1 NCelD=      1
         NCelK=      1 NCelE2=     1 NClLst=     1 CellRange=     0.0.
 One-electron integrals computed using PRISM.
 One-electron integral symmetry used in STVInt
 PrsmSu:  requested number of processors reduced to:   4 ShMem   1 Linda.
 PrsmSu:  requested number of processors reduced to:  21 ShMem   1 Linda.
   8 Symmetry operations used in ECPInt.
 ECPInt:  NShTT=     595 NPrTT=    1789 LenC2=     592 LenP2D=    1600.
 LDataN:  DoStor=T MaxTD1= 8 Len=  415
 Number of processors reduced to  42 by ecpmxn.
 NBasis=   114 RedAO= T EigKep=  2.84D-03  NBF=    24     7    13    13     7    24    13    13
 NBsUse=   114 1.00D-06 EigRej= -1.00D+00 NBFU=    24     7    13    13     7    24    13    13
 Precomputing XC quadrature grid using
 IXCGrd= 4 IRadAn=           5 IRanWt=          -1 IRanGd=           0 AccXCQ= 0.00D+00.
 Generated NRdTot=       0 NPtTot=           0 NUsed=           0 NTot=          32
 NSgBfM=   142   142   142   142   142 MxSgAt=     2 MxSgA2=     2.
 Leave Link  302 at Sat Apr 17 10:58:13 2021, MaxMem=   104857600 cpu:             215.5 elap:               4.7
 (Enter /s/ls4/users/knvvv/bin/g16sse/l303.exe)
 DipDrv:  MaxL=1.
 Leave Link  303 at Sat Apr 17 10:58:14 2021, MaxMem=   104857600 cpu:              10.1 elap:               0.3
 (Enter /s/ls4/users/knvvv/bin/g16sse/l401.exe)
 SCF N**3 symmetry information disabled.
 ExpMin= 1.57D-01 ExpMax= 1.33D+05 ExpMxC= 1.27D+03 IAcc=3 IRadAn=         5 AccDes= 0.00D+00
 Harris functional with IExCor= 1009 and IRadAn=       5 diagonalized for initial guess.
 HarFok:  IExCor= 1009 AccDes= 0.00D+00 IRadAn=         5 IDoV= 1 UseB2=F ITyADJ=14
 ICtDFT=  3500011 ScaDFX=  1.000000  1.000000  1.000000  1.000000
 FoFCou: FMM=F IPFlag=           0 FMFlag=      100000 FMFlg1=           0
         NFxFlg=           0 DoJE=T BraDBF=F KetDBF=T FulRan=T
         wScrn=  0.000000 ICntrl=       500 IOpCl=  0 I1Cent=   200000004 NGrid=           0
         NMat0=    1 NMatS0=      1 NMatT0=    0 NMatD0=    1 NMtDS0=    0 NMtDT0=    0
 Petite list used in FoFCou.
 CoulSu:  requested number of processors reduced to:  21 ShMem   1 Linda.
 CoulSu:  requested number of processors reduced to:  21 ShMem   1 Linda.
 CoulSu:  requested number of processors reduced to:  21 ShMem   1 Linda.
 CoulSu:  requested number of processors reduced to:  21 ShMem   1 Linda.
 Harris En= -199.440001711661    
 JPrj=0 DoOrth=F DoCkMO=F.
 Initial guess orbital symmetries:
       Occupied  (SGG) (SGU) (SGG) (SGU) (SGG) (PIU) (PIU) (PIG)
                 (PIG)
       Virtual   (SGU) (SGU) (PIU) (PIU) (SGG) (PIG) (PIG) (SGG)
                 (SGU) (PIU) (PIU) (DLTG) (DLTG) (DLTU) (DLTU)
                 (SGU) (PIU) (PIU) (SGG) (PIG) (PIG) (SGG) (PIG)
                 (PIG) (SGU) (SGG) (DLTG) (DLTG) (PIU) (PIU) (SGG)
                 (SGU) (PHIU) (PHIU) (PHIG) (PHIG) (DLTU) (DLTU)
                 (DLTG) (DLTG) (PIG) (PIG) (DLTU) (DLTU) (PIU)
                 (PIU) (SGU) (SGG) (SGU) (PIG) (PIG) (PIU) (PIU)
                 (PIG) (PIG) (SGG) (SGU) (PIU) (PIU) (SGG) (DLTG)
                 (DLTG) (PHIU) (PHIU) (?A) (?A) (?B) (?B) (PHIG)
                 (PHIG) (DLTU) (DLTU) (PIG) (PIG) (SGU) (DLTG)
                 (DLTG) (SGG) (PHIU) (PHIU) (PHIG) (PHIG) (PIU)
                 (PIU) (SGU) (DLTU) (DLTU) (SGG) (PIG) (PIG) (DLTG)
                 (DLTG) (DLTU) (DLTU) (PIU) (PIU) (PIG) (PIG) (SGU)
                 (SGG) (SGU) (SGG) (SGU) (SGG) (SGU)
 The electronic state of the initial guess is 1-SGG.
 Leave Link  401 at Sat Apr 17 10:58:15 2021, MaxMem=   104857600 cpu:              69.6 elap:               1.7
 (Enter /s/ls4/users/knvvv/bin/g16sse/l502.exe)
 Keep R1 ints in memory in symmetry-blocked form, NReq=75743002.
 FoFCou: FMM=F IPFlag=           0 FMFlag=           0 FMFlg1=           0
         NFxFlg=           0 DoJE=F BraDBF=F KetDBF=F FulRan=T
         wScrn=  0.000000 ICntrl=       600 IOpCl=  0 I1Cent=           0 NGrid=           0
         NMat0=    1 NMatS0=   6555 NMatT0=    0 NMatD0=    1 NMtDS0=    0 NMtDT0=    0
 Petite list used in FoFCou.
 CoulSu:  requested number of processors reduced to:  18 ShMem   1 Linda.
 Closed shell SCF:
 Using DIIS extrapolation, IDIIS=  1040.
 NGot=   104857600 LenX=   102045848 LenY=   102024671
 Requested convergence on RMS density matrix=1.00D-08 within 128 cycles.
 Requested convergence on MAX density matrix=1.00D-06.
 Requested convergence on             energy=1.00D-06.
 No special actions if energy rises.
 Integral accuracy reduced to 1.0D-05 until final iterations.

 Cycle   1  Pass 0  IDiag  1:
 E= -199.519684656110    
 DIIS: error= 5.14D-02 at cycle   1 NSaved=   1.
 NSaved= 1 IEnMin= 1 EnMin= -199.519684656110     IErMin= 1 ErrMin= 5.14D-02
 ErrMax= 5.14D-02  0.00D+00 EMaxC= 1.00D-01 BMatC= 8.33D-02 BMatP= 8.33D-02
 IDIUse=3 WtCom= 4.86D-01 WtEn= 5.14D-01
 Coeff-Com:  0.100D+01
 Coeff-En:   0.100D+01
 Coeff:      0.100D+01
 Gap=     0.430 Goal=   None    Shift=    0.000
 GapD=    0.430 DampG=2.000 DampE=0.500 DampFc=1.0000 IDamp=-1.
 RMSDP=8.30D-04 MaxDP=1.39D-02              OVMax= 2.62D-02

 Cycle   2  Pass 0  IDiag  1:
 E= -199.531446305660     Delta-E=       -0.011761649550 Rises=F Damp=F
 DIIS: error= 8.27D-03 at cycle   2 NSaved=   2.
 NSaved= 2 IEnMin= 2 EnMin= -199.531446305660     IErMin= 2 ErrMin= 8.27D-03
 ErrMax= 8.27D-03  0.00D+00 EMaxC= 1.00D-01 BMatC= 3.51D-03 BMatP= 8.33D-02
 IDIUse=3 WtCom= 9.17D-01 WtEn= 8.27D-02
 Coeff-Com:  0.101D+00 0.899D+00
 Coeff-En:   0.000D+00 0.100D+01
 Coeff:      0.929D-01 0.907D+00
 Gap=     0.442 Goal=   None    Shift=    0.000
 RMSDP=2.24D-04 MaxDP=3.52D-03 DE=-1.18D-02 OVMax= 1.53D-02

 Cycle   3  Pass 0  IDiag  1:
 E= -199.532809660112     Delta-E=       -0.001363354452 Rises=F Damp=F
 DIIS: error= 4.39D-03 at cycle   3 NSaved=   3.
 NSaved= 3 IEnMin= 3 EnMin= -199.532809660112     IErMin= 3 ErrMin= 4.39D-03
 ErrMax= 4.39D-03  0.00D+00 EMaxC= 1.00D-01 BMatC= 8.51D-04 BMatP= 3.51D-03
 IDIUse=3 WtCom= 9.56D-01 WtEn= 4.39D-02
 Coeff-Com: -0.978D-03 0.324D+00 0.677D+00
 Coeff-En:   0.000D+00 0.172D-01 0.983D+00
 Coeff:     -0.935D-03 0.311D+00 0.690D+00
 Gap=     0.440 Goal=   None    Shift=    0.000
 RMSDP=8.59D-05 MaxDP=1.48D-03 DE=-1.36D-03 OVMax= 3.97D-03

 Cycle   4  Pass 0  IDiag  1:
 E= -199.533204006419     Delta-E=       -0.000394346307 Rises=F Damp=F
 DIIS: error= 6.59D-04 at cycle   4 NSaved=   4.
 NSaved= 4 IEnMin= 4 EnMin= -199.533204006419     IErMin= 4 ErrMin= 6.59D-04
 ErrMax= 6.59D-04  0.00D+00 EMaxC= 1.00D-01 BMatC= 1.53D-05 BMatP= 8.51D-04
 IDIUse=3 WtCom= 9.93D-01 WtEn= 6.59D-03
 Coeff-Com: -0.173D-02 0.940D-01 0.236D+00 0.672D+00
 Coeff-En:   0.000D+00 0.000D+00 0.000D+00 0.100D+01
 Coeff:     -0.172D-02 0.933D-01 0.235D+00 0.674D+00
 Gap=     0.440 Goal=   None    Shift=    0.000
 RMSDP=1.08D-05 MaxDP=2.19D-04 DE=-3.94D-04 OVMax= 5.00D-04

 Cycle   5  Pass 0  IDiag  1:
 E= -199.533210356689     Delta-E=       -0.000006350270 Rises=F Damp=F
 DIIS: error= 4.40D-05 at cycle   5 NSaved=   5.
 NSaved= 5 IEnMin= 5 EnMin= -199.533210356689     IErMin= 5 ErrMin= 4.40D-05
 ErrMax= 4.40D-05  0.00D+00 EMaxC= 1.00D-01 BMatC= 5.82D-08 BMatP= 1.53D-05
 IDIUse=1 WtCom= 1.00D+00 WtEn= 0.00D+00
 Coeff-Com: -0.422D-04-0.951D-02-0.254D-01-0.304D-01 0.107D+01
 Coeff:     -0.422D-04-0.951D-02-0.254D-01-0.304D-01 0.107D+01
 Gap=     0.440 Goal=   None    Shift=    0.000
 RMSDP=1.93D-06 MaxDP=3.42D-05 DE=-6.35D-06 OVMax= 7.71D-05

 Initial convergence to 1.0D-05 achieved.  Increase integral accuracy.
 Cycle   6  Pass 1  IDiag  1:
 E= -199.533237055066     Delta-E=       -0.000026698377 Rises=F Damp=F
 DIIS: error= 3.69D-05 at cycle   1 NSaved=   1.
 NSaved= 1 IEnMin= 1 EnMin= -199.533237055066     IErMin= 1 ErrMin= 3.69D-05
 ErrMax= 3.69D-05  0.00D+00 EMaxC= 1.00D-01 BMatC= 4.92D-08 BMatP= 4.92D-08
 IDIUse=1 WtCom= 1.00D+00 WtEn= 0.00D+00
 Coeff-Com:  0.100D+01
 Coeff:      0.100D+01
 Gap=     0.440 Goal=   None    Shift=    0.000
 RMSDP=1.93D-06 MaxDP=3.42D-05 DE=-2.67D-05 OVMax= 9.20D-05

 Cycle   7  Pass 1  IDiag  1:
 E= -199.533237102399     Delta-E=       -0.000000047333 Rises=F Damp=F
 DIIS: error= 1.47D-05 at cycle   2 NSaved=   2.
 NSaved= 2 IEnMin= 2 EnMin= -199.533237102399     IErMin= 2 ErrMin= 1.47D-05
 ErrMax= 1.47D-05  0.00D+00 EMaxC= 1.00D-01 BMatC= 5.46D-09 BMatP= 4.92D-08
 IDIUse=1 WtCom= 1.00D+00 WtEn= 0.00D+00
 Coeff-Com:  0.759D-01 0.924D+00
 Coeff:      0.759D-01 0.924D+00
 Gap=     0.440 Goal=   None    Shift=    0.000
 RMSDP=3.95D-07 MaxDP=7.07D-06 DE=-4.73D-08 OVMax= 1.78D-05

 Cycle   8  Pass 1  IDiag  1:
 E= -199.533237104524     Delta-E=       -0.000000002125 Rises=F Damp=F
 DIIS: error= 7.01D-06 at cycle   3 NSaved=   3.
 NSaved= 3 IEnMin= 3 EnMin= -199.533237104524     IErMin= 3 ErrMin= 7.01D-06
 ErrMax= 7.01D-06  0.00D+00 EMaxC= 1.00D-01 BMatC= 1.81D-09 BMatP= 5.46D-09
 IDIUse=1 WtCom= 1.00D+00 WtEn= 0.00D+00
 Coeff-Com: -0.346D-01 0.371D+00 0.664D+00
 Coeff:     -0.346D-01 0.371D+00 0.664D+00
 Gap=     0.440 Goal=   None    Shift=    0.000
 RMSDP=1.29D-07 MaxDP=2.39D-06 DE=-2.12D-09 OVMax= 6.92D-06

 Cycle   9  Pass 1  IDiag  1:
 E= -199.533237105386     Delta-E=       -0.000000000862 Rises=F Damp=F
 DIIS: error= 2.84D-07 at cycle   4 NSaved=   4.
 NSaved= 4 IEnMin= 4 EnMin= -199.533237105386     IErMin= 4 ErrMin= 2.84D-07
 ErrMax= 2.84D-07  0.00D+00 EMaxC= 1.00D-01 BMatC= 1.63D-12 BMatP= 1.81D-09
 IDIUse=1 WtCom= 1.00D+00 WtEn= 0.00D+00
 Coeff-Com:  0.542D-03-0.292D-01-0.603D-01 0.109D+01
 Coeff:      0.542D-03-0.292D-01-0.603D-01 0.109D+01
 Gap=     0.440 Goal=   None    Shift=    0.000
 RMSDP=1.23D-08 MaxDP=2.61D-07 DE=-8.62D-10 OVMax= 6.06D-07

 Cycle  10  Pass 1  IDiag  1:
 E= -199.533237105389     Delta-E=       -0.000000000002 Rises=F Damp=F
 DIIS: error= 4.22D-08 at cycle   5 NSaved=   5.
 NSaved= 5 IEnMin= 5 EnMin= -199.533237105389     IErMin= 5 ErrMin= 4.22D-08
 ErrMax= 4.22D-08  0.00D+00 EMaxC= 1.00D-01 BMatC= 5.99D-14 BMatP= 1.63D-12
 IDIUse=1 WtCom= 1.00D+00 WtEn= 0.00D+00
 Coeff-Com:  0.194D-03-0.577D-02-0.788D-02 0.951D-01 0.918D+00
 Coeff:      0.194D-03-0.577D-02-0.788D-02 0.951D-01 0.918D+00
 Gap=     0.440 Goal=   None    Shift=    0.000
 RMSDP=1.07D-09 MaxDP=2.57D-08 DE=-2.39D-12 OVMax= 5.39D-08

 SCF Done:  E(RM062X) =  -199.533237105     A.U. after   10 cycles
            NFock= 10  Conv=0.11D-08     -V/T= 2.0031
 KE= 1.989220740995D+02 PE=-5.373358868311D+02 EE= 1.085925409478D+02
 Leave Link  502 at Sat Apr 17 10:58:20 2021, MaxMem=   104857600 cpu:             215.6 elap:               5.0
 (Enter /s/ls4/users/knvvv/bin/g16sse/l601.exe)
 Copying SCF densities to generalized density rwf, IOpCl= 0 IROHF=0.

 **********************************************************************

            Population analysis using the SCF density.

 **********************************************************************

 Orbital symmetries:
       Occupied  (SGG) (SGU) (SGG) (SGU) (SGG) (PIU) (PIU) (PIG)
                 (PIG)
       Virtual   (SGU) (SGU) (PIU) (PIU) (SGG) (PIG) (PIG) (SGG)
                 (SGU) (PIU) (PIU) (DLTG) (DLTG) (DLTU) (DLTU)
                 (SGU) (SGG) (PIU) (PIU) (PIG) (PIG) (SGG) (PIG)
                 (PIG) (SGU) (SGG) (PIU) (PIU) (DLTG) (DLTG) (SGG)
                 (SGU) (PHIU) (PHIU) (PHIG) (PHIG) (DLTU) (DLTU)
                 (DLTG) (DLTG) (PIG) (PIG) (DLTU) (DLTU) (PIU)
                 (PIU) (SGU) (SGG) (PIG) (PIG) (SGU) (PIU) (PIU)
                 (PIG) (PIG) (SGG) (SGU) (PIU) (PIU) (SGG) (DLTG)
                 (DLTG) (PHIU) (PHIU) (?A) (?A) (?B) (?B) (PHIG)
                 (PHIG) (DLTU) (DLTU) (PIG) (PIG) (SGU) (DLTG)
                 (DLTG) (PHIU) (PHIU) (SGG) (PIU) (PIU) (PHIG)
                 (PHIG) (SGU) (DLTU) (DLTU) (SGG) (PIG) (PIG) (DLTG)
                 (DLTG) (DLTU) (DLTU) (PIU) (PIU) (PIG) (PIG) (SGU)
                 (SGG) (SGU) (SGG) (SGU) (SGG) (SGU)
 The electronic state is 1-SGG.
 Alpha  occ. eigenvalues --  -25.36147 -25.36133  -1.50551  -1.25776  -0.67868
 Alpha  occ. eigenvalues --   -0.65590  -0.65590  -0.52202  -0.52202
 Alpha virt. eigenvalues --   -0.08153   0.28981   0.33136   0.33136   0.39600
 Alpha virt. eigenvalues --    0.42482   0.42482   0.52049   0.95393   1.22200
 Alpha virt. eigenvalues --    1.22200   1.25374   1.25380   1.53623   1.53630
 Alpha virt. eigenvalues --    1.60461   1.63080   1.64271   1.64271   1.71626
 Alpha virt. eigenvalues --    1.71626   1.92446   2.07034   2.07034   2.60244
 Alpha virt. eigenvalues --    3.34263   3.79268   3.79268   3.79875   3.79877
 Alpha virt. eigenvalues --    3.94313   3.96011   4.07090   4.07090   4.22053
 Alpha virt. eigenvalues --    4.22053   4.55377   4.55378   4.91524   4.91525
 Alpha virt. eigenvalues --    4.99495   4.99495   5.09528   5.09530   5.10218
 Alpha virt. eigenvalues --    5.10218   5.24434   5.61868   5.79179   5.79179
 Alpha virt. eigenvalues --    5.79730   6.14030   6.14030   6.23616   6.23616
 Alpha virt. eigenvalues --    6.79883   7.20632  10.77516  10.77516  10.93805
 Alpha virt. eigenvalues --   11.00884  11.00887  11.21615  11.21615  11.28896
 Alpha virt. eigenvalues --   11.28900  11.29672  11.29677  11.32342  11.32342
 Alpha virt. eigenvalues --   11.55540  11.55545  12.10277  12.10277  12.26192
 Alpha virt. eigenvalues --   14.24025  14.24027  14.33376  14.33376  14.35204
 Alpha virt. eigenvalues --   14.39436  14.39436  14.41058  14.41058  14.63089
 Alpha virt. eigenvalues --   14.64646  14.64647  14.85077  15.43026  15.43026
 Alpha virt. eigenvalues --   15.55572  15.55572  15.65750  15.65750  15.66466
 Alpha virt. eigenvalues --   15.66466  15.81346  15.81346  15.96350  16.47801
 Alpha virt. eigenvalues --   16.85039  53.56764  54.49169 282.24088 283.41744
          Condensed to atoms (all electrons):
               1          2
     1  F    8.965332   0.034668
     2  F    0.034668   8.965332
 Mulliken charges:
               1
     1  F   -0.000000
     2  F   -0.000000
 Sum of Mulliken charges =  -0.00000
 Mulliken charges with hydrogens summed into heavy atoms:
               1
     1  F   -0.000000
     2  F   -0.000000
 Electronic spatial extent (au):  <R**2>=             53.0481
 Charge=             -0.0000 electrons
 Dipole moment (field-independent basis, Debye):
    X=             -0.0000    Y=             -0.0000    Z=              0.0000  Tot=              0.0000
 Quadrupole moment (field-independent basis, Debye-Ang):
   XX=             -9.6176   YY=             -9.6176   ZZ=             -8.8277
   XY=             -0.0000   XZ=              0.0000   YZ=              0.0000
 Traceless Quadrupole moment (field-independent basis, Debye-Ang):
   XX=             -0.2633   YY=             -0.2633   ZZ=              0.5266
   XY=             -0.0000   XZ=              0.0000   YZ=              0.0000
 Octapole moment (field-independent basis, Debye-Ang**2):
  XXX=             -0.0000  YYY=              0.0000  ZZZ=             -0.0000  XYY=             -0.0000
  XXY=             -0.0000  XXZ=             -0.0000  XZZ=             -0.0000  YZZ=              0.0000
  YYZ=              0.0000  XYZ=              0.0000
 Hexadecapole moment (field-independent basis, Debye-Ang**3):
 XXXX=             -5.8333 YYYY=             -5.8333 ZZZZ=            -29.9929 XXXY=             -0.0000
 XXXZ=              0.0000 YYYX=             -0.0000 YYYZ=              0.0000 ZZZX=              0.0000
 ZZZY=              0.0000 XXYY=             -1.9444 XXZZ=             -6.7434 YYZZ=             -6.7434
 XXYZ=              0.0000 YYXZ=              0.0000 ZZXY=             -0.0000
 N-N= 3.028803467837D+01 E-N=-5.373358861982D+02  KE= 1.989220740995D+02
 PrsmSu:  requested number of processors reduced to:  21 ShMem   1 Linda.
 No NMR shielding tensors so no spin-rotation constants.
 Leave Link  601 at Sat Apr 17 10:58:22 2021, MaxMem=   104857600 cpu:              75.2 elap:               1.7
 (Enter /s/ls4/users/knvvv/bin/g16sse/l801.exe)
 DoSCS=F DFT=T ScalE2(SS,OS)=  1.000000  1.000000
 Range of M.O.s used for correlation:     1   114
 NBasis=   114 NAE=     9 NBE=     9 NFC=     0 NFV=     0
 NROrb=    114 NOA=     9 NOB=     9 NVA=   105 NVB=   105
 Leave Link  801 at Sat Apr 17 10:58:22 2021, MaxMem=   104857600 cpu:               4.2 elap:               0.1
 (Enter /s/ls4/users/knvvv/bin/g16sse/l914.exe)
 RHF ground state
 Doing stability rather than CIS.
 Two-electron integrals replicated using symmetry.
 MDV=   104857600 DFT=T DoStab=T Mixed=T DoRPA=F DoScal=F NonHer=F
 Making orbital integer symmetry assigments:
 Orbital symmetries:
       Occupied  (SGG) (SGU) (SGG) (SGU) (SGG) (PIU) (PIU) (PIG)
                 (PIG)
       Virtual   (SGU) (SGU) (PIU) (PIU) (SGG) (PIG) (PIG) (SGG)
                 (SGU) (PIU) (PIU) (DLTG) (DLTG) (DLTU) (DLTU)
                 (SGU) (SGG) (PIU) (PIU) (PIG) (PIG) (SGG) (PIG)
                 (PIG) (SGU) (SGG) (PIU) (PIU) (DLTG) (DLTG) (SGG)
                 (SGU) (PHIU) (PHIU) (PHIG) (PHIG) (DLTU) (DLTU)
                 (DLTG) (DLTG) (PIG) (PIG) (DLTU) (DLTU) (PIU)
                 (PIU) (SGU) (SGG) (PIG) (PIG) (SGU) (PIU) (PIU)
                 (PIG) (PIG) (SGG) (SGU) (PIU) (PIU) (SGG) (DLTG)
                 (DLTG) (PHIU) (PHIU) (?A) (?A) (?B) (?B) (PHIG)
                 (PHIG) (DLTU) (DLTU) (PIG) (PIG) (SGU) (DLTG)
                 (DLTG) (PHIU) (PHIU) (SGG) (PIU) (PIU) (PHIG)
                 (PHIG) (SGU) (DLTU) (DLTU) (SGG) (PIG) (PIG) (DLTG)
                 (DLTG) (DLTU) (DLTU) (PIU) (PIU) (PIG) (PIG) (SGU)
                 (SGG) (SGU) (SGG) (SGU) (SGG) (SGU)
    48 initial guesses have been made.
 Convergence on wavefunction:    0.001000000000000
 Davidson Disk Diagonalization:  ConvIn= 1.00D-03 SkipCon=T Conv= 1.00D-03.
 Max sub-space:  2000 roots to seek:    48 dimension of matrix:         1890
 Iteration     1 Dimension    48 NMult     0 NNew     48
 Estimated number of processors is:   20
 CISAX will form     1 AO SS matrices at one time.
 NMat=     1 NSing=     1 JSym2X= 2.
 FoFJK:  IHMeth= 1 ICntrl=       0 DoSepK=F KAlg= 0 I1Cent=           0 FoldK=F
 IRaf= 990000000 NMat=       1 IRICut=       1 DoRegI=T DoRafI=F ISym2E= 2 IDoP0=0 IntGTp=1.
 FoFCou: FMM=F IPFlag=           0 FMFlag=      100000 FMFlg1=           0
         NFxFlg=           0 DoJE=F BraDBF=F KetDBF=F FulRan=T
         wScrn=  0.000000 ICntrl=         0 IOpCl=  0 I1Cent=           0 NGrid=           0
         NMat0=    1 NMatS0=      1 NMatT0=    0 NMatD0=    1 NMtDS0=    0 NMtDT0=    0
 Integrals replicated using symmetry in FoFCou.
 CoulSu:  requested number of processors reduced to:  20 ShMem   1 Linda.
 NMat=     1 NSing=     1 JSym2X= 2.
 CoulSu:  requested number of processors reduced to:  20 ShMem   1 Linda.
 NMat=     1 NSing=     1 JSym2X= 2.
 CoulSu:  requested number of processors reduced to:  20 ShMem   1 Linda.
 NMat=     1 NSing=     1 JSym2X= 2.
 CoulSu:  requested number of processors reduced to:  20 ShMem   1 Linda.
 NMat=     1 NSing=     1 JSym2X= 2.
 CoulSu:  requested number of processors reduced to:  20 ShMem   1 Linda.
 NMat=     1 NSing=     1 JSym2X= 2.
 CoulSu:  requested number of processors reduced to:  20 ShMem   1 Linda.
 NMat=     1 NSing=     1 JSym2X= 2.
 CoulSu:  requested number of processors reduced to:  20 ShMem   1 Linda.
 NMat=     1 NSing=     1 JSym2X= 2.
 CoulSu:  requested number of processors reduced to:  20 ShMem   1 Linda.
 NMat=     1 NSing=     1 JSym2X= 2.
 CoulSu:  requested number of processors reduced to:  20 ShMem   1 Linda.
 NMat=     1 NSing=     1 JSym2X= 2.
 CoulSu:  requested number of processors reduced to:  20 ShMem   1 Linda.
 NMat=     1 NSing=     1 JSym2X= 2.
 CoulSu:  requested number of processors reduced to:  20 ShMem   1 Linda.
 NMat=     1 NSing=     1 JSym2X= 2.
 CoulSu:  requested number of processors reduced to:  20 ShMem   1 Linda.
 NMat=     1 NSing=     1 JSym2X= 2.
 CoulSu:  requested number of processors reduced to:  20 ShMem   1 Linda.
 NMat=     1 NSing=     1 JSym2X= 2.
 CoulSu:  requested number of processors reduced to:  20 ShMem   1 Linda.
 NMat=     1 NSing=     1 JSym2X= 2.
 CoulSu:  requested number of processors reduced to:  20 ShMem   1 Linda.
 NMat=     1 NSing=     1 JSym2X= 2.
 CoulSu:  requested number of processors reduced to:  20 ShMem   1 Linda.
 NMat=     1 NSing=     1 JSym2X= 2.
 CoulSu:  requested number of processors reduced to:  20 ShMem   1 Linda.
 NMat=     1 NSing=     1 JSym2X= 2.
 CoulSu:  requested number of processors reduced to:  20 ShMem   1 Linda.
 NMat=     1 NSing=     1 JSym2X= 2.
 CoulSu:  requested number of processors reduced to:  20 ShMem   1 Linda.
 NMat=     1 NSing=     1 JSym2X= 2.
 CoulSu:  requested number of processors reduced to:  20 ShMem   1 Linda.
 NMat=     1 NSing=     1 JSym2X= 2.
 CoulSu:  requested number of processors reduced to:  20 ShMem   1 Linda.
 NMat=     1 NSing=     1 JSym2X= 2.
 CoulSu:  requested number of processors reduced to:  20 ShMem   1 Linda.
 NMat=     1 NSing=     1 JSym2X= 2.
 CoulSu:  requested number of processors reduced to:  20 ShMem   1 Linda.
 NMat=     1 NSing=     1 JSym2X= 2.
 CoulSu:  requested number of processors reduced to:  20 ShMem   1 Linda.
 NMat=     1 NSing=     0 JSym2X= 2.
 CoulSu:  requested number of processors reduced to:  20 ShMem   1 Linda.
 NMat=     1 NSing=     0 JSym2X= 2.
 CoulSu:  requested number of processors reduced to:  20 ShMem   1 Linda.
 NMat=     1 NSing=     0 JSym2X= 2.
 CoulSu:  requested number of processors reduced to:  20 ShMem   1 Linda.
 NMat=     1 NSing=     0 JSym2X= 2.
 CoulSu:  requested number of processors reduced to:  20 ShMem   1 Linda.
 NMat=     1 NSing=     0 JSym2X= 2.
 CoulSu:  requested number of processors reduced to:  20 ShMem   1 Linda.
 NMat=     1 NSing=     0 JSym2X= 2.
 CoulSu:  requested number of processors reduced to:  20 ShMem   1 Linda.
 NMat=     1 NSing=     0 JSym2X= 2.
 CoulSu:  requested number of processors reduced to:  20 ShMem   1 Linda.
 NMat=     1 NSing=     0 JSym2X= 2.
 CoulSu:  requested number of processors reduced to:  20 ShMem   1 Linda.
 NMat=     1 NSing=     0 JSym2X= 2.
 CoulSu:  requested number of processors reduced to:  20 ShMem   1 Linda.
 NMat=     1 NSing=     0 JSym2X= 2.
 CoulSu:  requested number of processors reduced to:  20 ShMem   1 Linda.
 NMat=     1 NSing=     0 JSym2X= 2.
 CoulSu:  requested number of processors reduced to:  20 ShMem   1 Linda.
 NMat=     1 NSing=     0 JSym2X= 2.
 CoulSu:  requested number of processors reduced to:  20 ShMem   1 Linda.
 NMat=     1 NSing=     0 JSym2X= 2.
 CoulSu:  requested number of processors reduced to:  20 ShMem   1 Linda.
 NMat=     1 NSing=     0 JSym2X= 2.
 CoulSu:  requested number of processors reduced to:  20 ShMem   1 Linda.
 NMat=     1 NSing=     0 JSym2X= 2.
 CoulSu:  requested number of processors reduced to:  20 ShMem   1 Linda.
 NMat=     1 NSing=     0 JSym2X= 2.
 CoulSu:  requested number of processors reduced to:  20 ShMem   1 Linda.
 NMat=     1 NSing=     0 JSym2X= 2.
 CoulSu:  requested number of processors reduced to:  20 ShMem   1 Linda.
 NMat=     1 NSing=     0 JSym2X= 2.
 CoulSu:  requested number of processors reduced to:  20 ShMem   1 Linda.
 NMat=     1 NSing=     0 JSym2X= 2.
 CoulSu:  requested number of processors reduced to:  20 ShMem   1 Linda.
 NMat=     1 NSing=     0 JSym2X= 2.
 CoulSu:  requested number of processors reduced to:  20 ShMem   1 Linda.
 NMat=     1 NSing=     0 JSym2X= 2.
 CoulSu:  requested number of processors reduced to:  20 ShMem   1 Linda.
 NMat=     1 NSing=     0 JSym2X= 2.
 CoulSu:  requested number of processors reduced to:  20 ShMem   1 Linda.
 NMat=     1 NSing=     0 JSym2X= 2.
 CoulSu:  requested number of processors reduced to:  20 ShMem   1 Linda.
 NMat=     1 NSing=     0 JSym2X= 2.
 CoulSu:  requested number of processors reduced to:  20 ShMem   1 Linda.
 New state      1 was old state      2
 Excitation Energies [eV] at current iteration:
 Root      1 :     3.015437351366151
 Root      2 :     3.015437351366320
 Root      3 :     4.448832210738420
 Root      4 :     5.636857205394104
 Root      5 :     5.636857205394183
 Root      6 :     6.904836884447222
 Root      7 :     6.904836884447415
 Root      8 :     9.241343858690499
 Root      9 :     9.241343858690620
 Root     10 :    16.437710256285090
 Root     11 :    18.065390621830260
 Root     12 :    18.066302814286160
 Root     13 :    18.109618248504860
 Root     14 :    18.109618248505120
 Root     15 :    18.112625491778250
 Root     16 :    18.112625491778960
 Root     17 :    18.182716898468740
 Root     18 :    18.330142535441310
 Root     19 :    18.331016751092810
 Root     20 :    18.866739398197620
 Root     21 :    18.866739398199960
 Root     22 :    20.221339422897440
 Root     23 :    20.221339422897920
 Root     24 :    20.257287260612100
 Root     25 :    20.257287260612240
 Root     26 :    20.615931763668680
 Root     27 :    20.617001251301900
 Root     28 :    20.699734439692350
 Root     29 :    20.700831661280030
 Root     30 :    21.399290913975800
 Root     31 :    21.399290913978930
 Root     32 :    21.568448115275870
 Root     33 :    21.570127392519150
 Root     34 :    22.292918218285920
 Root     35 :    22.292918218286070
 Root     36 :    22.327657600280670
 Root     37 :    22.327657600280810
 Root     38 :    22.616937142502100
 Root     39 :    22.678739572569190
 Root     40 :    22.679122362882910
 Root     41 :    22.684590222597890
 Root     42 :    22.890506375420330
 Root     43 :    22.890506375421420
 Root     44 :    22.917251884600550
 Root     45 :    22.917595015740110
 Root     46 :    23.317131759515100
 Root     47 :    30.264554044177290
 Root     48 :    40.115146440338190
 Iteration     2 Dimension    96 NMult    48 NNew     48
 Estimated number of processors is:   20
 CISAX will form     1 AO SS matrices at one time.
 NMat=     1 NSing=     1 JSym2X= 2.
 CoulSu:  requested number of processors reduced to:  20 ShMem   1 Linda.
 NMat=     1 NSing=     1 JSym2X= 2.
 CoulSu:  requested number of processors reduced to:  20 ShMem   1 Linda.
 NMat=     1 NSing=     1 JSym2X= 2.
 CoulSu:  requested number of processors reduced to:  20 ShMem   1 Linda.
 NMat=     1 NSing=     1 JSym2X= 2.
 CoulSu:  requested number of processors reduced to:  20 ShMem   1 Linda.
 NMat=     1 NSing=     1 JSym2X= 2.
 CoulSu:  requested number of processors reduced to:  20 ShMem   1 Linda.
 NMat=     1 NSing=     1 JSym2X= 2.
 CoulSu:  requested number of processors reduced to:  20 ShMem   1 Linda.
 NMat=     1 NSing=     1 JSym2X= 2.
 CoulSu:  requested number of processors reduced to:  20 ShMem   1 Linda.
 NMat=     1 NSing=     1 JSym2X= 2.
 CoulSu:  requested number of processors reduced to:  20 ShMem   1 Linda.
 NMat=     1 NSing=     1 JSym2X= 2.
 CoulSu:  requested number of processors reduced to:  20 ShMem   1 Linda.
 NMat=     1 NSing=     1 JSym2X= 2.
 CoulSu:  requested number of processors reduced to:  20 ShMem   1 Linda.
 NMat=     1 NSing=     1 JSym2X= 2.
 CoulSu:  requested number of processors reduced to:  20 ShMem   1 Linda.
 NMat=     1 NSing=     1 JSym2X= 2.
 CoulSu:  requested number of processors reduced to:  20 ShMem   1 Linda.
 NMat=     1 NSing=     1 JSym2X= 2.
 CoulSu:  requested number of processors reduced to:  20 ShMem   1 Linda.
 NMat=     1 NSing=     1 JSym2X= 2.
 CoulSu:  requested number of processors reduced to:  20 ShMem   1 Linda.
 NMat=     1 NSing=     1 JSym2X= 2.
 CoulSu:  requested number of processors reduced to:  20 ShMem   1 Linda.
 NMat=     1 NSing=     1 JSym2X= 2.
 CoulSu:  requested number of processors reduced to:  20 ShMem   1 Linda.
 NMat=     1 NSing=     1 JSym2X= 2.
 CoulSu:  requested number of processors reduced to:  20 ShMem   1 Linda.
 NMat=     1 NSing=     1 JSym2X= 2.
 CoulSu:  requested number of processors reduced to:  20 ShMem   1 Linda.
 NMat=     1 NSing=     1 JSym2X= 2.
 CoulSu:  requested number of processors reduced to:  20 ShMem   1 Linda.
 NMat=     1 NSing=     1 JSym2X= 2.
 CoulSu:  requested number of processors reduced to:  20 ShMem   1 Linda.
 NMat=     1 NSing=     1 JSym2X= 2.
 CoulSu:  requested number of processors reduced to:  20 ShMem   1 Linda.
 NMat=     1 NSing=     1 JSym2X= 2.
 CoulSu:  requested number of processors reduced to:  20 ShMem   1 Linda.
 NMat=     1 NSing=     1 JSym2X= 2.
 CoulSu:  requested number of processors reduced to:  20 ShMem   1 Linda.
 NMat=     1 NSing=     1 JSym2X= 2.
 CoulSu:  requested number of processors reduced to:  20 ShMem   1 Linda.
 NMat=     1 NSing=     0 JSym2X= 2.
 CoulSu:  requested number of processors reduced to:  20 ShMem   1 Linda.
 NMat=     1 NSing=     0 JSym2X= 2.
 CoulSu:  requested number of processors reduced to:  20 ShMem   1 Linda.
 NMat=     1 NSing=     0 JSym2X= 2.
 CoulSu:  requested number of processors reduced to:  20 ShMem   1 Linda.
 NMat=     1 NSing=     0 JSym2X= 2.
 CoulSu:  requested number of processors reduced to:  20 ShMem   1 Linda.
 NMat=     1 NSing=     0 JSym2X= 2.
 CoulSu:  requested number of processors reduced to:  20 ShMem   1 Linda.
 NMat=     1 NSing=     0 JSym2X= 2.
 CoulSu:  requested number of processors reduced to:  20 ShMem   1 Linda.
 NMat=     1 NSing=     0 JSym2X= 2.
 CoulSu:  requested number of processors reduced to:  20 ShMem   1 Linda.
 NMat=     1 NSing=     0 JSym2X= 2.
 CoulSu:  requested number of processors reduced to:  20 ShMem   1 Linda.
 NMat=     1 NSing=     0 JSym2X= 2.
 CoulSu:  requested number of processors reduced to:  20 ShMem   1 Linda.
 NMat=     1 NSing=     0 JSym2X= 2.
 CoulSu:  requested number of processors reduced to:  20 ShMem   1 Linda.
 NMat=     1 NSing=     0 JSym2X= 2.
 CoulSu:  requested number of processors reduced to:  20 ShMem   1 Linda.
 NMat=     1 NSing=     0 JSym2X= 2.
 CoulSu:  requested number of processors reduced to:  20 ShMem   1 Linda.
 NMat=     1 NSing=     0 JSym2X= 2.
 CoulSu:  requested number of processors reduced to:  20 ShMem   1 Linda.
 NMat=     1 NSing=     0 JSym2X= 2.
 CoulSu:  requested number of processors reduced to:  20 ShMem   1 Linda.
 NMat=     1 NSing=     0 JSym2X= 2.
 CoulSu:  requested number of processors reduced to:  20 ShMem   1 Linda.
 NMat=     1 NSing=     0 JSym2X= 2.
 CoulSu:  requested number of processors reduced to:  20 ShMem   1 Linda.
 NMat=     1 NSing=     0 JSym2X= 2.
 CoulSu:  requested number of processors reduced to:  20 ShMem   1 Linda.
 NMat=     1 NSing=     0 JSym2X= 2.
 CoulSu:  requested number of processors reduced to:  20 ShMem   1 Linda.
 NMat=     1 NSing=     0 JSym2X= 2.
 CoulSu:  requested number of processors reduced to:  20 ShMem   1 Linda.
 NMat=     1 NSing=     0 JSym2X= 2.
 CoulSu:  requested number of processors reduced to:  20 ShMem   1 Linda.
 NMat=     1 NSing=     0 JSym2X= 2.
 CoulSu:  requested number of processors reduced to:  20 ShMem   1 Linda.
 NMat=     1 NSing=     0 JSym2X= 2.
 CoulSu:  requested number of processors reduced to:  20 ShMem   1 Linda.
 NMat=     1 NSing=     0 JSym2X= 2.
 CoulSu:  requested number of processors reduced to:  20 ShMem   1 Linda.
 NMat=     1 NSing=     0 JSym2X= 2.
 CoulSu:  requested number of processors reduced to:  20 ShMem   1 Linda.
 Vector  80 SDiff=7.12D-01 TDiff=1.79D-04 assumed to be triplet.
 Vector  81 SDiff=1.79D-04 TDiff=7.12D-01 assumed to be singlet.
 Root      1 not converged, maximum delta is    0.090107251907793
 Excitation Energies [eV] at current iteration:
 Root      1 :     2.684022005852412   Change is   -0.331415345513740
 Root      2 :     2.684022005852593   Change is   -0.331415345513727
 Root      3 :     4.116689902644801   Change is   -0.332142308093619
 Root      4 :     5.245158786269701   Change is   -0.391698419124404
 Root      5 :     5.245158786269815   Change is   -0.391698419124367
 Root      6 :     6.614099431309272   Change is   -0.290737453137950
 Root      7 :     6.614099431309423   Change is   -0.290737453137992
 Root      8 :     9.023605063451548   Change is   -0.217738795238951
 Root      9 :     9.023605063451608   Change is   -0.217738795239012
 Root     10 :    15.360650808456710   Change is   -1.077059447828371
 Root     11 :    17.382653765733200   Change is   -0.800063132735539
 Root     12 :    17.488437862007340   Change is   -0.576952759822921
 Root     13 :    17.490057334912880   Change is   -0.576245479373286
 Root     14 :    17.677620692741600   Change is   -0.435004799036649
 Root     15 :    17.677620692742330   Change is   -0.435004799036631
 Root     16 :    17.884692140502530   Change is   -0.224926108002336
 Root     17 :    17.884692140502740   Change is   -0.224926108002372
 Root     18 :    18.031200236383140   Change is   -0.298942299058170
 Root     19 :    18.032520758026670   Change is   -0.298495993066144
 Root     20 :    18.788743678858300   Change is   -0.077995719339327
 Root     21 :    18.788743678866140   Change is   -0.077995719333817
 Root     22 :    19.829620391477350   Change is   -0.391719031420086
 Root     23 :    19.829620391477870   Change is   -0.391719031420050
 Root     24 :    20.150201674783280   Change is   -0.549532764909075
 Root     25 :    20.151725171799820   Change is   -0.549106489480207
 Root     26 :    20.156440216972990   Change is   -0.100847043639106
 Root     27 :    20.156440216973070   Change is   -0.100847043639173
 Root     28 :    20.463596664566420   Change is   -0.152335099102263
 Root     29 :    20.464863235803290   Change is   -0.152138015498607
 Root     30 :    20.480448527515010   Change is   -1.087999587760863
 Root     31 :    21.144754945926740   Change is   -0.425372446592414
 Root     32 :    21.360380864369710   Change is   -0.038910049606094
 Root     33 :    21.360380864371790   Change is   -0.038910049607140
 Root     34 :    21.751723654371760   Change is   -0.541194563914154
 Root     35 :    21.751723654371990   Change is   -0.541194563914081
 Root     36 :    22.177002015009210   Change is   -0.150655585271459
 Root     37 :    22.177002015009340   Change is   -0.150655585271471
 Root     38 :    22.329634569278330   Change is   -0.354955653319554
 Root     39 :    22.546752070032330   Change is   -0.070185072469777
 Root     40 :    22.663023858795000   Change is   -0.015715713774194
 Root     41 :    22.663365160040590   Change is   -0.015757202842311
 Root     42 :    22.843633740954010   Change is   -0.073618143646542
 Root     43 :    22.843841374209330   Change is   -0.073753641530785
 Root     44 :    22.874011998001950   Change is   -0.016494377418381
 Root     45 :    22.874011998002760   Change is   -0.016494377418659
 Root     46 :    23.086342876565510   Change is   -0.230788882949584
 Root     47 :    24.972897055652420   Change is   -5.291656988524864
 Root     48 :    25.053618844349880
 Iteration     3 Dimension   102 NMult    96 NNew      6
 Estimated number of processors is:   20
 CISAX will form     1 AO SS matrices at one time.
 NMat=     1 NSing=     1 JSym2X= 2.
 CoulSu:  requested number of processors reduced to:  20 ShMem   1 Linda.
 NMat=     1 NSing=     1 JSym2X= 2.
 CoulSu:  requested number of processors reduced to:  20 ShMem   1 Linda.
 NMat=     1 NSing=     1 JSym2X= 2.
 CoulSu:  requested number of processors reduced to:  20 ShMem   1 Linda.
 NMat=     1 NSing=     0 JSym2X= 2.
 CoulSu:  requested number of processors reduced to:  20 ShMem   1 Linda.
 NMat=     1 NSing=     0 JSym2X= 2.
 CoulSu:  requested number of processors reduced to:  20 ShMem   1 Linda.
 NMat=     1 NSing=     0 JSym2X= 2.
 CoulSu:  requested number of processors reduced to:  20 ShMem   1 Linda.
 Vector  20 SDiff=8.78D-01 TDiff=3.38D-04 assumed to be triplet.
 Vector  21 SDiff=3.38D-04 TDiff=8.78D-01 assumed to be singlet.
 Root      1 not converged, maximum delta is    0.312319249081074
 Excitation Energies [eV] at current iteration:
 Root      1 :     2.681669425045631   Change is   -0.002352580806781
 Root      2 :     2.681669425045673   Change is   -0.002352580806920
 Root      3 :     4.110946778139070   Change is   -0.005743124505731
 Root      4 :     5.235191054067564   Change is   -0.009967732202137
 Root      5 :     5.235191054067631   Change is   -0.009967732202185
 Root      6 :     9.022433063427799   Change is   -0.001172000023748
 Iteration     4 Dimension   108 NMult   102 NNew      6
 Estimated number of processors is:   20
 CISAX will form     1 AO SS matrices at one time.
 NMat=     1 NSing=     1 JSym2X= 2.
 CoulSu:  requested number of processors reduced to:  20 ShMem   1 Linda.
 NMat=     1 NSing=     1 JSym2X= 2.
 CoulSu:  requested number of processors reduced to:  20 ShMem   1 Linda.
 NMat=     1 NSing=     1 JSym2X= 2.
 CoulSu:  requested number of processors reduced to:  20 ShMem   1 Linda.
 NMat=     1 NSing=     0 JSym2X= 2.
 CoulSu:  requested number of processors reduced to:  20 ShMem   1 Linda.
 NMat=     1 NSing=     0 JSym2X= 2.
 CoulSu:  requested number of processors reduced to:  20 ShMem   1 Linda.
 NMat=     1 NSing=     0 JSym2X= 2.
 CoulSu:  requested number of processors reduced to:  20 ShMem   1 Linda.
 Vector  20 SDiff=8.78D-01 TDiff=2.16D-04 assumed to be triplet.
 Vector  21 SDiff=2.16D-04 TDiff=8.78D-01 assumed to be singlet.
 New state      1 was old state      2
 Root      1 not converged, maximum delta is    0.481113387556595
 Excitation Energies [eV] at current iteration:
 Root      1 :     2.681641410375880   Change is   -0.000028014669793
 Root      2 :     2.681641410375916   Change is   -0.000028014669714
 Root      3 :     4.110845347523868   Change is   -0.000101430615202
 Root      4 :     5.235025936064855   Change is   -0.000165118002775
 Root      5 :     5.235025936064976   Change is   -0.000165118002588
 Root      6 :     9.022324015001168   Change is   -0.000109048426631
 Iteration     5 Dimension   114 NMult   108 NNew      6
 Estimated number of processors is:   20
 CISAX will form     1 AO SS matrices at one time.
 NMat=     1 NSing=     1 JSym2X= 2.
 CoulSu:  requested number of processors reduced to:  20 ShMem   1 Linda.
 NMat=     1 NSing=     1 JSym2X= 2.
 CoulSu:  requested number of processors reduced to:  20 ShMem   1 Linda.
 NMat=     1 NSing=     1 JSym2X= 2.
 CoulSu:  requested number of processors reduced to:  20 ShMem   1 Linda.
 NMat=     1 NSing=     0 JSym2X= 2.
 CoulSu:  requested number of processors reduced to:  20 ShMem   1 Linda.
 NMat=     1 NSing=     0 JSym2X= 2.
 CoulSu:  requested number of processors reduced to:  20 ShMem   1 Linda.
 NMat=     1 NSing=     0 JSym2X= 2.
 CoulSu:  requested number of processors reduced to:  20 ShMem   1 Linda.
 Root      1 not converged, maximum delta is    0.417090768106711
 Excitation Energies [eV] at current iteration:
 Root      1 :     2.681641274105148   Change is   -0.000000136270732
 Root      2 :     2.681641274105202   Change is   -0.000000136270713
 Root      3 :     4.110845086721965   Change is   -0.000000260801903
 Root      4 :     5.235024775837542   Change is   -0.000001160227435
 Root      5 :     5.235024775837578   Change is   -0.000001160227278
 Root      6 :     9.022323196646369   Change is   -0.000000818354800
 Iteration     6 Dimension   119 NMult   114 NNew      5
 Estimated number of processors is:   20
 CISAX will form     1 AO SS matrices at one time.
 NMat=     1 NSing=     1 JSym2X= 2.
 CoulSu:  requested number of processors reduced to:  20 ShMem   1 Linda.
 NMat=     1 NSing=     1 JSym2X= 2.
 CoulSu:  requested number of processors reduced to:  20 ShMem   1 Linda.
 NMat=     1 NSing=     0 JSym2X= 2.
 CoulSu:  requested number of processors reduced to:  20 ShMem   1 Linda.
 NMat=     1 NSing=     0 JSym2X= 2.
 CoulSu:  requested number of processors reduced to:  20 ShMem   1 Linda.
 NMat=     1 NSing=     0 JSym2X= 2.
 CoulSu:  requested number of processors reduced to:  20 ShMem   1 Linda.
 Root      1 not converged, maximum delta is    0.074087726398296
 Excitation Energies [eV] at current iteration:
 Root      1 :     2.681641267827013   Change is   -0.000000006278135
 Root      2 :     2.681641267827164   Change is   -0.000000006278039
 Root      3 :     4.110845086049711   Change is   -0.000000000672255
 Root      4 :     5.235024773891549   Change is   -0.000000001945992
 Root      5 :     5.235024773891610   Change is   -0.000000001945968
 Root      6 :     9.022323196646386   Change is    0.000000000000018
 Iteration     7 Dimension   121 NMult   119 NNew      2
 Estimated number of processors is:   21
 CISAX will form     1 AO SS matrices at one time.
 NMat=     1 NSing=     1 JSym2X= 2.
 CoulSu:  requested number of processors reduced to:  20 ShMem   1 Linda.
 NMat=     1 NSing=     1 JSym2X= 2.
 CoulSu:  requested number of processors reduced to:  20 ShMem   1 Linda.
 DSYEVD-2 returned Info=         243 IAlg= 4 N=   121 NDim=   121 NE2=      800349 trying  DSYEV.
 Vector  44 SDiff=7.05D-01 TDiff=2.12D-03 assumed to be triplet.
 Vector  45 SDiff=2.12D-03 TDiff=7.05D-01 assumed to be singlet.
 Root      1 not converged, maximum delta is    0.235291917144620
 Excitation Energies [eV] at current iteration:
 Root      1 :     2.681641267826999   Change is   -0.000000000000014
 Root      2 :     2.681641267827211   Change is    0.000000000000047
 Root      3 :     4.110845086049749   Change is    0.000000000000039
 Root      4 :     5.235024772728918   Change is   -0.000000001162631
 Root      5 :     5.235024772728982   Change is   -0.000000001162627
 Root      6 :     9.022323196646340   Change is   -0.000000000000047
 Convergence achieved on expansion vectors.
 ***********************************************************************
 Stability analysis using <AA,BB:AA,BB> singles matrix:
 ***********************************************************************
 1PDM for each excited state written to RWF  633
 Ground to excited state transition densities written to RWF  633

 Eigenvectors of the stability matrix:
 
 Excited state symmetry could not be determined.
 Eigenvector   1:      Triplet-?Sym  Eigenvalue= 0.0985485  <S**2>=2.000
       8 -> 10         0.43314
       9 -> 10         0.54919
 
 Excited state symmetry could not be determined.
 Eigenvector   2:      Triplet-?Sym  Eigenvalue= 0.0985485  <S**2>=2.000
       8 -> 10         0.54919
       9 -> 10        -0.43314
 
 Eigenvector   3:      Triplet-SGU  Eigenvalue= 0.1510708  <S**2>=2.000
       5 -> 10         0.69386
       5 -> 11         0.11599
 
 Excited state symmetry could not be determined.
 Eigenvector   4:      Singlet-?Sym  Eigenvalue= 0.1923836  <S**2>=0.000
       8 -> 10         0.65731
       9 -> 10         0.24681
 
 Excited state symmetry could not be determined.
 Eigenvector   5:      Singlet-?Sym  Eigenvalue= 0.1923836  <S**2>=0.000
       8 -> 10        -0.24681
       9 -> 10         0.65731
 
 Excited state symmetry could not be determined.
 Eigenvector   6:      Singlet-?Sym  Eigenvalue= 0.3315643  <S**2>=0.000
       6 -> 10         0.20475
       7 -> 10         0.67270
 The wavefunction is stable under the perturbations considered.
 Leave Link  914 at Sat Apr 17 11:01:09 2021, MaxMem=   104857600 cpu:            6023.8 elap:             166.8
 (Enter /s/ls4/users/knvvv/bin/g16sse/l508.exe)
 The wavefunction is already stable.
 Leave Link  508 at Sat Apr 17 11:01:09 2021, MaxMem=   104857600 cpu:               2.2 elap:               0.1
 (Enter /s/ls4/users/knvvv/bin/g16sse/l601.exe)
 Copying SCF densities to generalized density rwf, IOpCl= 0 IROHF=0.

 **********************************************************************

            Population analysis using the SCF density.

 **********************************************************************

 Orbital symmetries:
       Occupied  (SGG) (SGU) (SGG) (SGU) (SGG) (PIU) (PIU) (PIG)
                 (PIG)
       Virtual   (SGU) (SGU) (PIU) (PIU) (SGG) (PIG) (PIG) (SGG)
                 (SGU) (PIU) (PIU) (DLTG) (DLTG) (DLTU) (DLTU)
                 (SGU) (SGG) (PIU) (PIU) (PIG) (PIG) (SGG) (PIG)
                 (PIG) (SGU) (SGG) (PIU) (PIU) (DLTG) (DLTG) (SGG)
                 (SGU) (PHIU) (PHIU) (PHIG) (PHIG) (DLTU) (DLTU)
                 (DLTG) (DLTG) (PIG) (PIG) (DLTU) (DLTU) (PIU)
                 (PIU) (SGU) (SGG) (PIG) (PIG) (SGU) (PIU) (PIU)
                 (PIG) (PIG) (SGG) (SGU) (PIU) (PIU) (SGG) (DLTG)
                 (DLTG) (PHIU) (PHIU) (?A) (?A) (?B) (?B) (PHIG)
                 (PHIG) (DLTU) (DLTU) (PIG) (PIG) (SGU) (DLTG)
                 (DLTG) (PHIU) (PHIU) (SGG) (PIU) (PIU) (PHIG)
                 (PHIG) (SGU) (DLTU) (DLTU) (SGG) (PIG) (PIG) (DLTG)
                 (DLTG) (DLTU) (DLTU) (PIU) (PIU) (PIG) (PIG) (SGU)
                 (SGG) (SGU) (SGG) (SGU) (SGG) (SGU)
 The electronic state is 1-SGG.
 Alpha  occ. eigenvalues --  -25.36147 -25.36133  -1.50551  -1.25776  -0.67868
 Alpha  occ. eigenvalues --   -0.65590  -0.65590  -0.52202  -0.52202
 Alpha virt. eigenvalues --   -0.08153   0.28981   0.33136   0.33136   0.39600
 Alpha virt. eigenvalues --    0.42482   0.42482   0.52049   0.95393   1.22200
 Alpha virt. eigenvalues --    1.22200   1.25374   1.25380   1.53623   1.53630
 Alpha virt. eigenvalues --    1.60461   1.63080   1.64271   1.64271   1.71626
 Alpha virt. eigenvalues --    1.71626   1.92446   2.07034   2.07034   2.60244
 Alpha virt. eigenvalues --    3.34263   3.79268   3.79268   3.79875   3.79877
 Alpha virt. eigenvalues --    3.94313   3.96011   4.07090   4.07090   4.22053
 Alpha virt. eigenvalues --    4.22053   4.55377   4.55378   4.91524   4.91525
 Alpha virt. eigenvalues --    4.99495   4.99495   5.09528   5.09530   5.10218
 Alpha virt. eigenvalues --    5.10218   5.24434   5.61868   5.79179   5.79179
 Alpha virt. eigenvalues --    5.79730   6.14030   6.14030   6.23616   6.23616
 Alpha virt. eigenvalues --    6.79883   7.20632  10.77516  10.77516  10.93805
 Alpha virt. eigenvalues --   11.00884  11.00887  11.21615  11.21615  11.28896
 Alpha virt. eigenvalues --   11.28900  11.29672  11.29677  11.32342  11.32342
 Alpha virt. eigenvalues --   11.55540  11.55545  12.10277  12.10277  12.26192
 Alpha virt. eigenvalues --   14.24025  14.24027  14.33376  14.33376  14.35204
 Alpha virt. eigenvalues --   14.39436  14.39436  14.41058  14.41058  14.63089
 Alpha virt. eigenvalues --   14.64646  14.64647  14.85077  15.43026  15.43026
 Alpha virt. eigenvalues --   15.55572  15.55572  15.65750  15.65750  15.66466
 Alpha virt. eigenvalues --   15.66466  15.81346  15.81346  15.96350  16.47801
 Alpha virt. eigenvalues --   16.85039  53.56764  54.49169 282.24088 283.41744
          Condensed to atoms (all electrons):
               1          2
     1  F    8.965332   0.034668
     2  F    0.034668   8.965332
 Mulliken charges:
               1
     1  F   -0.000000
     2  F   -0.000000
 Sum of Mulliken charges =  -0.00000
 Mulliken charges with hydrogens summed into heavy atoms:
               1
     1  F   -0.000000
     2  F   -0.000000
 Electronic spatial extent (au):  <R**2>=             53.0481
 Charge=             -0.0000 electrons
 Dipole moment (field-independent basis, Debye):
    X=             -0.0000    Y=             -0.0000    Z=              0.0000  Tot=              0.0000
 Quadrupole moment (field-independent basis, Debye-Ang):
   XX=             -9.6176   YY=             -9.6176   ZZ=             -8.8277
   XY=             -0.0000   XZ=              0.0000   YZ=              0.0000
 Traceless Quadrupole moment (field-independent basis, Debye-Ang):
   XX=             -0.2633   YY=             -0.2633   ZZ=              0.5266
   XY=             -0.0000   XZ=              0.0000   YZ=              0.0000
 Octapole moment (field-independent basis, Debye-Ang**2):
  XXX=             -0.0000  YYY=              0.0000  ZZZ=             -0.0000  XYY=             -0.0000
  XXY=             -0.0000  XXZ=             -0.0000  XZZ=             -0.0000  YZZ=              0.0000
  YYZ=              0.0000  XYZ=              0.0000
 Hexadecapole moment (field-independent basis, Debye-Ang**3):
 XXXX=             -5.8333 YYYY=             -5.8333 ZZZZ=            -29.9929 XXXY=             -0.0000
 XXXZ=              0.0000 YYYX=             -0.0000 YYYZ=              0.0000 ZZZX=              0.0000
 ZZZY=              0.0000 XXYY=             -1.9444 XXZZ=             -6.7434 YYZZ=             -6.7434
 XXYZ=              0.0000 YYXZ=              0.0000 ZZXY=             -0.0000
 N-N= 3.028803467837D+01 E-N=-5.373358861982D+02  KE= 1.989220740995D+02
 PrsmSu:  requested number of processors reduced to:  21 ShMem   1 Linda.
 No NMR shielding tensors so no spin-rotation constants.
 Leave Link  601 at Sat Apr 17 11:01:11 2021, MaxMem=   104857600 cpu:              92.4 elap:               2.1
 (Enter /s/ls4/users/knvvv/bin/g16sse/l9999.exe)

 Test job not archived.
 1\1\GINC-N149\Stability\RM062X\def2QZVP\F2\KNVVV\17-Apr-2021\0\\#P M06
 2X/Def2QZVP Integral=UltraFineGrid SCF=NoSymm Stable=(RExt, Opt) IOp(1
 /33=1)\\Database calculations.\\0,1\F,0,0.,0.,-0.7075955\F,0,0.,0.,0.7
 075955\\Version=ES64L-G16RevA.03\State=1-SGG\HF=-199.5332371\RMSD=1.06
 5e-09\Dipole=0.,0.,0.\Quadrupole=-0.1957582,-0.1957582,0.3915163,0.,0.
 ,0.\PG=D*H [C*(F1.F1)]\\@


 O WAD SOME POWER THE GIFTIE GIE US       
 TO SEE OURSELS AS OTHERS SEE US.....     
 IT WOULD FRAE MONIE A BLUNDER FREE US,   
                     AND FOOLISH NOTION...
 WHAT AIRS IN DRESS AND GAIT WAD LEA'E US,
                     AND EV'N DEVOTION....
                                          
              (ROBERT BURNS 'TO A LOUSE') 
 Job cpu time:       0 days  1 hours 52 minutes 30.7 seconds.
 Elapsed time:       0 days  0 hours  3 minutes  3.6 seconds.
 File lengths (MBytes):  RWF=     87 Int=      0 D2E=      0 Chk=      5 Scr=      1
 Normal termination of Gaussian 16 at Sat Apr 17 11:01:12 2021.
