 Entering Gaussian System, Link 0=/s/ls4/users/knvvv/bin/g16sse/g16
 Input=data/database/M062X--def2-TZVP--11_Co_atm_SR-TM-BE17.gjf
 Output=data/database/M062X--def2-TZVP--11_Co_atm_SR-TM-BE17.log
 Initial command:
 /s/ls4/users/knvvv/bin/g16sse/l1.exe "/s/ls4/users/knvvv/bin/scratch/Gau-40490.inp" -scrdir="/s/ls4/users/knvvv/bin/scratch/"
 Entering Link 1 = /s/ls4/users/knvvv/bin/g16sse/l1.exe PID=     40491.
  
 Copyright (c) 1988,1990,1992,1993,1995,1998,2003,2009,2016,
            Gaussian, Inc.  All Rights Reserved.
  
 This is part of the Gaussian(R) 16 program.  It is based on
 the Gaussian(R) 09 system (copyright 2009, Gaussian, Inc.),
 the Gaussian(R) 03 system (copyright 2003, Gaussian, Inc.),
 the Gaussian(R) 98 system (copyright 1998, Gaussian, Inc.),
 the Gaussian(R) 94 system (copyright 1995, Gaussian, Inc.),
 the Gaussian 92(TM) system (copyright 1992, Gaussian, Inc.),
 the Gaussian 90(TM) system (copyright 1990, Gaussian, Inc.),
 the Gaussian 88(TM) system (copyright 1988, Gaussian, Inc.),
 the Gaussian 86(TM) system (copyright 1986, Carnegie Mellon
 University), and the Gaussian 82(TM) system (copyright 1983,
 Carnegie Mellon University). Gaussian is a federally registered
 trademark of Gaussian, Inc.
  
 This software contains proprietary and confidential information,
 including trade secrets, belonging to Gaussian, Inc.
  
 This software is provided under written license and may be
 used, copied, transmitted, or stored only in accord with that
 written license.
  
 The following legend is applicable only to US Government
 contracts under FAR:
  
                    RESTRICTED RIGHTS LEGEND
  
 Use, reproduction and disclosure by the US Government is
 subject to restrictions as set forth in subparagraphs (a)
 and (c) of the Commercial Computer Software - Restricted
 Rights clause in FAR 52.227-19.
  
 Gaussian, Inc.
 340 Quinnipiac St., Bldg. 40, Wallingford CT 06492
  
  
 ---------------------------------------------------------------
 Warning -- This program may not be used in any manner that
 competes with the business of Gaussian, Inc. or will provide
 assistance to any competitor of Gaussian, Inc.  The licensee
 of this program is prohibited from giving any competitor of
 Gaussian, Inc. access to this program.  By using this program,
 the user acknowledges that Gaussian, Inc. is engaged in the
 business of creating and licensing software in the field of
 computational chemistry and represents and warrants to the
 licensee that it is not a competitor of Gaussian, Inc. and that
 it will not use this program in any manner prohibited above.
 ---------------------------------------------------------------
  

 Cite this work as:
 Gaussian 16, Revision A.03,
 M. J. Frisch, G. W. Trucks, H. B. Schlegel, G. E. Scuseria, 
 M. A. Robb, J. R. Cheeseman, G. Scalmani, V. Barone, 
 G. A. Petersson, H. Nakatsuji, X. Li, M. Caricato, A. V. Marenich, 
 J. Bloino, B. G. Janesko, R. Gomperts, B. Mennucci, H. P. Hratchian, 
 J. V. Ortiz, A. F. Izmaylov, J. L. Sonnenberg, D. Williams-Young, 
 F. Ding, F. Lipparini, F. Egidi, J. Goings, B. Peng, A. Petrone, 
 T. Henderson, D. Ranasinghe, V. G. Zakrzewski, J. Gao, N. Rega, 
 G. Zheng, W. Liang, M. Hada, M. Ehara, K. Toyota, R. Fukuda, 
 J. Hasegawa, M. Ishida, T. Nakajima, Y. Honda, O. Kitao, H. Nakai, 
 T. Vreven, K. Throssell, J. A. Montgomery, Jr., J. E. Peralta, 
 F. Ogliaro, M. J. Bearpark, J. J. Heyd, E. N. Brothers, K. N. Kudin, 
 V. N. Staroverov, T. A. Keith, R. Kobayashi, J. Normand, 
 K. Raghavachari, A. P. Rendell, J. C. Burant, S. S. Iyengar, 
 J. Tomasi, M. Cossi, J. M. Millam, M. Klene, C. Adamo, R. Cammi, 
 J. W. Ochterski, R. L. Martin, K. Morokuma, O. Farkas, 
 J. B. Foresman, and D. J. Fox, Gaussian, Inc., Wallingford CT, 2016.
 
 ******************************************
 Gaussian 16:  ES64L-G16RevA.03 25-Dec-2016
                18-Apr-2021 
 ******************************************
 %RWF=temp12_8978,70GB
 %nprocshared=48
 Will use up to   48 processors via shared memory.
 Default route: MaxDisk=80GB
 ----------------------------------------------------------------------
 #P M062X/Def2TZVP Integral=UltraFineGrid SCF=NoSymm Stable=(RExt, Opt)
  IOp(1/33=1)
 ----------------------------------------------------------------------
 1/33=1,38=1,172=1/1;
 2/12=2,17=6,18=5,40=1/2;
 3/5=44,7=101,11=2,25=1,30=1,74=-55,75=-5/1,2,3;
 4/9=2/1;
 5/5=2,38=5/2;
 6/7=2,8=2,9=2,10=2,28=1/1;
 8/6=1,10=90,11=11/1;
 9/8=-3,42=1,46=1/14;
 5/5=2,8=3,17=40,38=5/8(-2);
 6/7=2,8=2,9=2,10=2,28=1/1;
 99/5=1,9=1/99;
 Leave Link    1 at Sun Apr 18 07:52:40 2021, MaxMem=           0 cpu:               8.4 elap:               0.2
 (Enter /s/ls4/users/knvvv/bin/g16sse/l101.exe)
 ONIOM data not found on unit 2.
 ----------------------
 Database calculations.
 ----------------------
 TstMul:  ICh=     0
 TstMul:  Mul=     4
 TstMul:  ICh=     0
 TstMul:  Mul=     4
 Symbolic Z-matrix:
 Charge =  0 Multiplicity = 4
 Co                    0.        0.        0. 
 
 RdStrC is calling ZToCFu for IStruc=1 NZ=     1.
 PrtBox:  NBox=     1 Levels=  0 BoxLen=    8.00 SMaxX=        0.00
          Shift=            0.000000            0.000000            0.000000
 Box      1 Number                   0 centers from      1 to      1:
 After GenITR:
 ITRead=  0
 MicOpt= -1
 ITRead=  0
 MicOpt= -1
 NAtoms=      1 NQM=        1 NQMF=       0 NMMI=      0 NMMIF=      0
                NMic=       0 NMicF=      0.
                    Isotopes and Nuclear Properties:
 (Nuclear quadrupole moments (NQMom) in fm**2, nuclear magnetic moments (NMagM)
  in nuclear magnetons)

  Atom         1
 IAtWgt=          59
 AtmWgt=  58.9331978
 NucSpn=           7
 AtZEff=  -0.0000000
 NQMom=   42.0000000
 NMagM=    4.6270000
 AtZNuc=  27.0000000
 No MM parameters found.
 Leave Link  101 at Sun Apr 18 07:52:40 2021, MaxMem=   104857600 cpu:               6.5 elap:               0.2
 (Enter /s/ls4/users/knvvv/bin/g16sse/l202.exe)
                          Input orientation:                          
 ---------------------------------------------------------------------
 Center     Atomic      Atomic             Coordinates (Angstroms)
 Number     Number       Type             X           Y           Z
 ---------------------------------------------------------------------
      1         27           0        0.000000    0.000000    0.000000
 ---------------------------------------------------------------------
 Stoichiometry    Co(4)
 Framework group  OH[O(Co)]
 Deg. of freedom     0
 Full point group                 OH      NOp  48
 Largest Abelian subgroup         D2H     NOp   8
 Largest concise Abelian subgroup C1      NOp   1
                         Standard orientation:                         
 ---------------------------------------------------------------------
 Center     Atomic      Atomic             Coordinates (Angstroms)
 Number     Number       Type             X           Y           Z
 ---------------------------------------------------------------------
      1         27           0        0.000000    0.000000    0.000000
 ---------------------------------------------------------------------
 Leave Link  202 at Sun Apr 18 07:52:41 2021, MaxMem=   104857600 cpu:              44.2 elap:               1.0
 (Enter /s/ls4/users/knvvv/bin/g16sse/l301.exe)
 Standard basis: def2TZVP (5D, 7F)
 Ernie: Thresh=  0.10000D-02 Tol=  0.10000D-05 Strict=F.
 There are    18 symmetry adapted cartesian basis functions of AG  symmetry.
 There are     4 symmetry adapted cartesian basis functions of B1G symmetry.
 There are     4 symmetry adapted cartesian basis functions of B2G symmetry.
 There are     4 symmetry adapted cartesian basis functions of B3G symmetry.
 There are     1 symmetry adapted cartesian basis functions of AU  symmetry.
 There are     7 symmetry adapted cartesian basis functions of B1U symmetry.
 There are     7 symmetry adapted cartesian basis functions of B2U symmetry.
 There are     7 symmetry adapted cartesian basis functions of B3U symmetry.
 There are    14 symmetry adapted basis functions of AG  symmetry.
 There are     4 symmetry adapted basis functions of B1G symmetry.
 There are     4 symmetry adapted basis functions of B2G symmetry.
 There are     4 symmetry adapted basis functions of B3G symmetry.
 There are     1 symmetry adapted basis functions of AU  symmetry.
 There are     6 symmetry adapted basis functions of B1U symmetry.
 There are     6 symmetry adapted basis functions of B2U symmetry.
 There are     6 symmetry adapted basis functions of B3U symmetry.
    45 basis functions,   102 primitive gaussians,    52 cartesian basis functions
    15 alpha electrons       12 beta electrons
       nuclear repulsion energy         0.0000000000 Hartrees.
 IExCor= 4336 DFT=T Ex+Corr=M062X ExCW=0 ScaHFX=  0.540000
 ScaDFX=  1.000000  1.000000  1.000000  1.000000 ScalE2=  1.000000  1.000000
 IRadAn=      5 IRanWt=     -1 IRanGd=            0 ICorTp=0 IEmpDi=  4
 NAtoms=    1 NActive=    1 NUniq=    1 SFac= 1.00D+00 NAtFMM=   60 NAOKFM=F Big=F
 Integral buffers will be    131072 words long.
 Raffenetti 2 integral format.
 Two-electron integral symmetry is turned on.
 Leave Link  301 at Sun Apr 18 07:52:41 2021, MaxMem=   104857600 cpu:               6.3 elap:               0.2
 (Enter /s/ls4/users/knvvv/bin/g16sse/l302.exe)
 NPDir=0 NMtPBC=     1 NCelOv=     1 NCel=       1 NClECP=     1 NCelD=      1
         NCelK=      1 NCelE2=     1 NClLst=     1 CellRange=     0.0.
 One-electron integrals computed using PRISM.
 One-electron integral symmetry used in STVInt
 PrsmSu:  requested number of processors reduced to:  13 ShMem   1 Linda.
  48 Symmetry operations used in ECPInt.
 ECPInt:  NShTT=     120 NPrTT=     725 LenC2=     121 LenP2D=     725.
 LDataN:  DoStor=T MaxTD1= 6 Len=  172
 NBasis=    45 RedAO= T EigKep=  5.55D-02  NBF=    14     4     4     4     1     6     6     6
 NBsUse=    45 1.00D-06 EigRej= -1.00D+00 NBFU=    14     4     4     4     1     6     6     6
 Precomputing XC quadrature grid using
 IXCGrd= 4 IRadAn=           5 IRanWt=          -1 IRanGd=           0 AccXCQ= 0.00D+00.
 Generated NRdTot=       0 NPtTot=           0 NUsed=           0 NTot=          32
 NSgBfM=    52    52    52    52    52 MxSgAt=     1 MxSgA2=     1.
 Leave Link  302 at Sun Apr 18 07:52:48 2021, MaxMem=   104857600 cpu:             325.9 elap:               7.0
 (Enter /s/ls4/users/knvvv/bin/g16sse/l303.exe)
 DipDrv:  MaxL=1.
 Leave Link  303 at Sun Apr 18 07:52:48 2021, MaxMem=   104857600 cpu:              12.3 elap:               0.3
 (Enter /s/ls4/users/knvvv/bin/g16sse/l401.exe)
 SCF N**3 symmetry information disabled.
 ExpMin= 4.44D-02 ExpMax= 3.26D+05 ExpMxC= 3.15D+03 IAcc=3 IRadAn=         5 AccDes= 0.00D+00
 Harris functional with IExCor= 1009 and IRadAn=       5 diagonalized for initial guess.
 HarFok:  IExCor= 1009 AccDes= 0.00D+00 IRadAn=         5 IDoV= 1 UseB2=F ITyADJ=14
 ICtDFT=  3500011 ScaDFX=  1.000000  1.000000  1.000000  1.000000
 FoFCou: FMM=F IPFlag=           0 FMFlag=      100000 FMFlg1=           0
         NFxFlg=           0 DoJE=T BraDBF=F KetDBF=T FulRan=T
         wScrn=  0.000000 ICntrl=       500 IOpCl=  0 I1Cent=   200000004 NGrid=           0
         NMat0=    1 NMatS0=      1 NMatT0=    0 NMatD0=    1 NMtDS0=    0 NMtDT0=    0
 Petite list used in FoFCou.
 Harris En= -1382.31651385097    
 JPrj=0 DoOrth=F DoCkMO=F.
 Initial guess orbital symmetries:
 Alpha Orbitals:
       Occupied  (A1G) (A1G) (T1U) (T1U) (T1U) (A1G) (T1U) (T1U)
                 (T1U) (T2G) (T2G) (T2G) (EG) (EG) (A1G)
       Virtual   (T1U) (T1U) (T1U) (A1G) (T2G) (T2G) (T2G) (EG)
                 (EG) (T2G) (T2G) (T2G) (EG) (EG) (T1U) (T1U) (T1U)
                 (A1G) (T2G) (T2G) (T2G) (EG) (EG) (T2U) (T2U)
                 (T2U) (A2U) (T1U) (T1U) (T1U)
 Beta  Orbitals:
       Occupied  (A1G) (A1G) (T1U) (T1U) (T1U) (A1G) (T1U) (T1U)
                 (T1U) (T2G) (T2G) (T2G)
       Virtual   (EG) (EG) (A1G) (T1U) (T1U) (T1U) (A1G) (T2G)
                 (T2G) (T2G) (EG) (EG) (T2G) (T2G) (T2G) (EG) (EG)
                 (T1U) (T1U) (T1U) (A1G) (T2G) (T2G) (T2G) (EG)
                 (EG) (T2U) (T2U) (T2U) (A2U) (T1U) (T1U) (T1U)
 The electronic state of the initial guess is 4-A1G.
 Initial guess <Sx>= 0.0000 <Sy>= 0.0000 <Sz>= 1.5000 <S**2>= 3.7500 S= 1.5000
 Leave Link  401 at Sun Apr 18 07:52:52 2021, MaxMem=   104857600 cpu:             202.7 elap:               4.3
 (Enter /s/ls4/users/knvvv/bin/g16sse/l502.exe)
 Keep R1 and R2 ints in memory in symmetry-blocked form, NReq=42597388.
 FoFCou: FMM=F IPFlag=           0 FMFlag=           0 FMFlg1=           0
         NFxFlg=           0 DoJE=F BraDBF=F KetDBF=F FulRan=T
         wScrn=  0.000000 ICntrl=       600 IOpCl=  0 I1Cent=           0 NGrid=           0
         NMat0=    1 NMatS0=   1035 NMatT0=    0 NMatD0=    1 NMtDS0=    0 NMtDT0=    0
 Petite list used in FoFCou.
 UHF open shell SCF:
 Using DIIS extrapolation, IDIIS=  1040.
 NGot=   104857600 LenX=   104698530 LenY=   104695385
 Requested convergence on RMS density matrix=1.00D-08 within 128 cycles.
 Requested convergence on MAX density matrix=1.00D-06.
 Requested convergence on             energy=1.00D-06.
 No special actions if energy rises.

 Cycle   1  Pass 1  IDiag  1:
 E= -1382.63550747019    
 DIIS: error= 3.80D-02 at cycle   1 NSaved=   1.
 NSaved= 1 IEnMin= 1 EnMin= -1382.63550747019     IErMin= 1 ErrMin= 3.80D-02
 ErrMax= 3.80D-02  0.00D+00 EMaxC= 1.00D-01 BMatC= 2.63D-01 BMatP= 2.63D-01
 IDIUse=3 WtCom= 6.20D-01 WtEn= 3.80D-01
 Coeff-Com:  0.100D+01
 Coeff-En:   0.100D+01
 Coeff:      0.100D+01
 Gap=     0.310 Goal=   None    Shift=    0.000
 Gap=     0.418 Goal=   None    Shift=    0.000
 GapD=    0.310 DampG=1.000 DampE=0.250 DampFc=0.2500 IDamp=-1.
 Damping current iteration by 2.50D-01
 RMSDP=6.90D-03 MaxDP=2.54D-01              OVMax= 1.20D-01

 Cycle   2  Pass 1  IDiag  1:
 E= -1382.64275211484     Delta-E=       -0.007244644652 Rises=F Damp=T
 DIIS: error= 3.25D-02 at cycle   2 NSaved=   2.
 NSaved= 2 IEnMin= 2 EnMin= -1382.64275211484     IErMin= 2 ErrMin= 3.25D-02
 ErrMax= 3.25D-02  0.00D+00 EMaxC= 1.00D-01 BMatC= 1.15D-01 BMatP= 2.63D-01
 IDIUse=3 WtCom= 6.75D-01 WtEn= 3.25D-01
 Coeff-Com: -0.537D+00 0.154D+01
 Coeff-En:   0.000D+00 0.100D+01
 Coeff:     -0.363D+00 0.136D+01
 Gap=     0.311 Goal=   None    Shift=    0.000
 Gap=     0.148 Goal=   None    Shift=    0.000
 RMSDP=3.93D-03 MaxDP=1.69D-01 DE=-7.24D-03 OVMax= 5.71D-02

 Cycle   3  Pass 1  IDiag  1:
 E= -1382.66047318392     Delta-E=       -0.017721069083 Rises=F Damp=F
 DIIS: error= 5.19D-03 at cycle   3 NSaved=   3.
 NSaved= 3 IEnMin= 3 EnMin= -1382.66047318392     IErMin= 3 ErrMin= 5.19D-03
 ErrMax= 5.19D-03  0.00D+00 EMaxC= 1.00D-01 BMatC= 2.39D-03 BMatP= 1.15D-01
 IDIUse=3 WtCom= 9.48D-01 WtEn= 5.19D-02
 Coeff-Com: -0.150D+00 0.208D+00 0.942D+00
 Coeff-En:   0.000D+00 0.000D+00 0.100D+01
 Coeff:     -0.142D+00 0.197D+00 0.945D+00
 Gap=     0.309 Goal=   None    Shift=    0.000
 Gap=     0.155 Goal=   None    Shift=    0.000
 RMSDP=1.07D-03 MaxDP=4.31D-02 DE=-1.77D-02 OVMax= 1.98D-02

 Cycle   4  Pass 1  IDiag  1:
 E= -1382.66107401832     Delta-E=       -0.000600834401 Rises=F Damp=F
 DIIS: error= 1.74D-03 at cycle   4 NSaved=   4.
 NSaved= 4 IEnMin= 4 EnMin= -1382.66107401832     IErMin= 4 ErrMin= 1.74D-03
 ErrMax= 1.74D-03  0.00D+00 EMaxC= 1.00D-01 BMatC= 2.30D-04 BMatP= 2.39D-03
 IDIUse=3 WtCom= 9.83D-01 WtEn= 1.74D-02
 Coeff-Com:  0.605D-02-0.187D-01-0.391D+00 0.140D+01
 Coeff-En:   0.000D+00 0.000D+00 0.000D+00 0.100D+01
 Coeff:      0.595D-02-0.184D-01-0.384D+00 0.140D+01
 Gap=     0.308 Goal=   None    Shift=    0.000
 Gap=     0.154 Goal=   None    Shift=    0.000
 RMSDP=5.76D-04 MaxDP=2.37D-02 DE=-6.01D-04 OVMax= 1.05D-02

 Cycle   5  Pass 1  IDiag  1:
 E= -1382.66117805182     Delta-E=       -0.000104033501 Rises=F Damp=F
 DIIS: error= 4.67D-04 at cycle   5 NSaved=   5.
 NSaved= 5 IEnMin= 5 EnMin= -1382.66117805182     IErMin= 5 ErrMin= 4.67D-04
 ErrMax= 4.67D-04  0.00D+00 EMaxC= 1.00D-01 BMatC= 1.71D-05 BMatP= 2.30D-04
 IDIUse=3 WtCom= 9.95D-01 WtEn= 4.67D-03
 Coeff-Com:  0.249D-01-0.306D-01 0.182D-01-0.269D+00 0.126D+01
 Coeff-En:   0.000D+00 0.000D+00 0.000D+00 0.000D+00 0.100D+01
 Coeff:      0.248D-01-0.305D-01 0.181D-01-0.268D+00 0.126D+01
 Gap=     0.308 Goal=   None    Shift=    0.000
 Gap=     0.154 Goal=   None    Shift=    0.000
 RMSDP=5.80D-05 MaxDP=1.82D-03 DE=-1.04D-04 OVMax= 1.08D-03

 Cycle   6  Pass 1  IDiag  1:
 E= -1382.66118214121     Delta-E=       -0.000004089391 Rises=F Damp=F
 DIIS: error= 4.30D-05 at cycle   6 NSaved=   6.
 NSaved= 6 IEnMin= 6 EnMin= -1382.66118214121     IErMin= 6 ErrMin= 4.30D-05
 ErrMax= 4.30D-05  0.00D+00 EMaxC= 1.00D-01 BMatC= 1.58D-07 BMatP= 1.71D-05
 IDIUse=1 WtCom= 1.00D+00 WtEn= 0.00D+00
 Coeff-Com: -0.541D-02 0.683D-02 0.131D-02 0.369D-01-0.211D+00 0.117D+01
 Coeff:     -0.541D-02 0.683D-02 0.131D-02 0.369D-01-0.211D+00 0.117D+01
 Gap=     0.308 Goal=   None    Shift=    0.000
 Gap=     0.154 Goal=   None    Shift=    0.000
 RMSDP=2.60D-05 MaxDP=1.07D-03 DE=-4.09D-06 OVMax= 4.58D-04

 Cycle   7  Pass 1  IDiag  1:
 E= -1382.66118227423     Delta-E=       -0.000000133011 Rises=F Damp=F
 DIIS: error= 2.09D-05 at cycle   7 NSaved=   7.
 NSaved= 7 IEnMin= 7 EnMin= -1382.66118227423     IErMin= 7 ErrMin= 2.09D-05
 ErrMax= 2.09D-05  0.00D+00 EMaxC= 1.00D-01 BMatC= 5.32D-08 BMatP= 1.58D-07
 IDIUse=1 WtCom= 1.00D+00 WtEn= 0.00D+00
 Coeff-Com: -0.132D-03 0.118D-03-0.200D-03 0.811D-02-0.497D-01 0.657D-01
 Coeff-Com:  0.976D+00
 Coeff:     -0.132D-03 0.118D-03-0.200D-03 0.811D-02-0.497D-01 0.657D-01
 Coeff:      0.976D+00
 Gap=     0.308 Goal=   None    Shift=    0.000
 Gap=     0.154 Goal=   None    Shift=    0.000
 RMSDP=3.49D-06 MaxDP=1.42D-04 DE=-1.33D-07 OVMax= 6.22D-05

 Cycle   8  Pass 1  IDiag  1:
 E= -1382.66118228246     Delta-E=       -0.000000008234 Rises=F Damp=F
 DIIS: error= 2.08D-06 at cycle   8 NSaved=   8.
 NSaved= 8 IEnMin= 8 EnMin= -1382.66118228246     IErMin= 8 ErrMin= 2.08D-06
 ErrMax= 2.08D-06  0.00D+00 EMaxC= 1.00D-01 BMatC= 4.53D-10 BMatP= 5.32D-08
 IDIUse=1 WtCom= 1.00D+00 WtEn= 0.00D+00
 Coeff-Com:  0.615D-04-0.778D-04-0.102D-03-0.654D-03 0.505D-02-0.244D-01
 Coeff-Com: -0.171D+00 0.119D+01
 Coeff:      0.615D-04-0.778D-04-0.102D-03-0.654D-03 0.505D-02-0.244D-01
 Coeff:     -0.171D+00 0.119D+01
 Gap=     0.308 Goal=   None    Shift=    0.000
 Gap=     0.154 Goal=   None    Shift=    0.000
 RMSDP=7.10D-07 MaxDP=2.97D-05 DE=-8.23D-09 OVMax= 1.29D-05

 Cycle   9  Pass 1  IDiag  1:
 E= -1382.66118228259     Delta-E=       -0.000000000127 Rises=F Damp=F
 DIIS: error= 1.70D-07 at cycle   9 NSaved=   9.
 NSaved= 9 IEnMin= 9 EnMin= -1382.66118228259     IErMin= 9 ErrMin= 1.70D-07
 ErrMax= 1.70D-07  0.00D+00 EMaxC= 1.00D-01 BMatC= 3.93D-12 BMatP= 4.53D-10
 IDIUse=1 WtCom= 1.00D+00 WtEn= 0.00D+00
 Coeff-Com: -0.331D-05 0.345D-05 0.917D-05 0.208D-03-0.120D-02 0.398D-02
 Coeff-Com:  0.376D-01-0.238D+00 0.120D+01
 Coeff:     -0.331D-05 0.345D-05 0.917D-05 0.208D-03-0.120D-02 0.398D-02
 Coeff:      0.376D-01-0.238D+00 0.120D+01
 Gap=     0.308 Goal=   None    Shift=    0.000
 Gap=     0.154 Goal=   None    Shift=    0.000
 RMSDP=1.43D-08 MaxDP=3.68D-07 DE=-1.27D-10 OVMax= 2.14D-07

 Cycle  10  Pass 1  IDiag  1:
 E= -1382.66118228259     Delta-E=       -0.000000000004 Rises=F Damp=F
 DIIS: error= 2.35D-08 at cycle  10 NSaved=  10.
 NSaved=10 IEnMin=10 EnMin= -1382.66118228259     IErMin=10 ErrMin= 2.35D-08
 ErrMax= 2.35D-08  0.00D+00 EMaxC= 1.00D-01 BMatC= 5.76D-14 BMatP= 3.93D-12
 IDIUse=1 WtCom= 1.00D+00 WtEn= 0.00D+00
 Coeff-Com: -0.102D-05 0.155D-05 0.138D-06-0.461D-04 0.229D-03-0.487D-03
 Coeff-Com: -0.627D-02 0.357D-01-0.284D+00 0.125D+01
 Coeff:     -0.102D-05 0.155D-05 0.138D-06-0.461D-04 0.229D-03-0.487D-03
 Coeff:     -0.627D-02 0.357D-01-0.284D+00 0.125D+01
 Gap=     0.308 Goal=   None    Shift=    0.000
 Gap=     0.154 Goal=   None    Shift=    0.000
 RMSDP=6.68D-09 MaxDP=2.82D-07 DE=-3.87D-12 OVMax= 1.22D-07

 SCF Done:  E(UM062X) =  -1382.66118228     A.U. after   10 cycles
            NFock= 10  Conv=0.67D-08     -V/T= 2.0014
 <Sx>= 0.0000 <Sy>= 0.0000 <Sz>= 1.5000 <S**2>= 3.7645 S= 1.5036
 <L.S>= 0.000000000000E+00
 KE= 1.380737123938D+03 PE=-3.298990421058D+03 EE= 5.355921148372D+02
 Annihilation of the first spin contaminant:
 S**2 before annihilation     3.7645,   after     3.7501
 Leave Link  502 at Sun Apr 18 07:54:45 2021, MaxMem=   104857600 cpu:            5292.1 elap:             112.5
 (Enter /s/ls4/users/knvvv/bin/g16sse/l601.exe)
 Copying SCF densities to generalized density rwf, IOpCl= 1 IROHF=0.

 **********************************************************************

            Population analysis using the SCF density.

 **********************************************************************

 Orbital symmetries:
 Alpha Orbitals:
       Occupied  (A1G) (A1G) (T1U) (T1U) (T1U) (A1G) (T1U) (T1U)
                 (T1U) (EG) (EG) (T2G) (T2G) (T2G) (A1G)
       Virtual   (T1U) (T1U) (T1U) (A1G) (EG) (EG) (T2G) (T2G)
                 (T2G) (EG) (EG) (T2G) (T2G) (T2G) (T1U) (T1U)
                 (T1U) (A1G) (EG) (EG) (T2G) (T2G) (T2G) (T1U)
                 (T1U) (T1U) (T2U) (T2U) (T2U) (A2U)
 Beta  Orbitals:
       Occupied  (A1G) (A1G) (T1U) (T1U) (T1U) (A1G) (T1U) (T1U)
                 (T1U) (T2G) (T2G) (T2G)
       Virtual   (A1G) (EG) (EG) (T1U) (T1U) (T1U) (A1G) (T2G)
                 (T2G) (T2G) (EG) (EG) (EG) (EG) (T2G) (T2G) (T2G)
                 (T1U) (T1U) (T1U) (A1G) (T2G) (T2G) (T2G) (EG)
                 (EG) (A2U) (T2U) (T2U) (T2U) (T1U) (T1U) (T1U)
 The electronic state is 4-A1G.
 Alpha  occ. eigenvalues -- -279.35147 -33.36709 -29.00556 -29.00556 -29.00556
 Alpha  occ. eigenvalues --   -3.90353  -2.57207  -2.57207  -2.57207  -0.36963
 Alpha  occ. eigenvalues --   -0.36963  -0.34180  -0.34180  -0.34180  -0.20065
 Alpha virt. eigenvalues --    0.10763   0.10763   0.10763   0.18979   0.24180
 Alpha virt. eigenvalues --    0.24180   0.24212   0.24212   0.24212   1.03268
 Alpha virt. eigenvalues --    1.03268   1.04382   1.04382   1.04382   1.92326
 Alpha virt. eigenvalues --    1.92326   1.92326   2.89559   3.90667   3.90667
 Alpha virt. eigenvalues --    3.92683   3.92683   3.92683   4.97641   4.97641
 Alpha virt. eigenvalues --    4.97641   4.99044   4.99044   4.99044   5.00769
  Beta  occ. eigenvalues -- -279.35001 -33.31066 -28.95876 -28.95876 -28.95876
  Beta  occ. eigenvalues --   -3.80811  -2.44816  -2.44816  -2.44816  -0.27075
  Beta  occ. eigenvalues --   -0.27075  -0.27075
  Beta virt. eigenvalues --   -0.11702   0.03353   0.03353   0.07326   0.07326
  Beta virt. eigenvalues --    0.07326   0.14943   0.16537   0.16537   0.16537
  Beta virt. eigenvalues --    0.21339   0.21339   0.99053   0.99053   1.03808
  Beta virt. eigenvalues --    1.03808   1.03808   1.97106   1.97106   1.97106
  Beta virt. eigenvalues --    2.96620   3.97405   3.97405   3.97405   4.05031
  Beta virt. eigenvalues --    4.05031   5.04956   5.06566   5.06566   5.06566
  Beta virt. eigenvalues --    5.09238   5.09238   5.09238
          Condensed to atoms (all electrons):
               1
     1  Co  27.000000
          Atomic-Atomic Spin Densities.
               1
     1  Co   3.000000
 Mulliken charges and spin densities:
               1          2
     1  Co  -0.000000   3.000000
 Sum of Mulliken charges =  -0.00000   3.00000
 Mulliken charges and spin densities with hydrogens summed into heavy atoms:
               1          2
     1  Co  -0.000000   3.000000
 Electronic spatial extent (au):  <R**2>=             34.1918
 Charge=             -0.0000 electrons
 Dipole moment (field-independent basis, Debye):
    X=              0.0000    Y=             -0.0000    Z=             -0.0000  Tot=              0.0000
 Quadrupole moment (field-independent basis, Debye-Ang):
   XX=            -15.3297   YY=            -15.3297   ZZ=            -15.3297
   XY=              0.0000   XZ=             -0.0000   YZ=              0.0000
 Traceless Quadrupole moment (field-independent basis, Debye-Ang):
   XX=              0.0000   YY=              0.0000   ZZ=              0.0000
   XY=              0.0000   XZ=             -0.0000   YZ=              0.0000
 Octapole moment (field-independent basis, Debye-Ang**2):
  XXX=             -0.0000  YYY=             -0.0000  ZZZ=              0.0000  XYY=             -0.0000
  XXY=             -0.0000  XXZ=             -0.0000  XZZ=              0.0000  YZZ=             -0.0000
  YYZ=             -0.0000  XYZ=             -0.0000
 Hexadecapole moment (field-independent basis, Debye-Ang**3):
 XXXX=            -28.0796 YYYY=            -28.0796 ZZZZ=            -28.0796 XXXY=              0.0000
 XXXZ=             -0.0000 YYYX=             -0.0000 YYYZ=              0.0000 ZZZX=              0.0000
 ZZZY=             -0.0000 XXYY=             -9.7385 XXZZ=             -9.7385 YYZZ=             -9.7385
 XXYZ=              0.0000 YYXZ=             -0.0000 ZZXY=             -0.0000
 N-N= 0.000000000000D+00 E-N=-3.298990419025D+03  KE= 1.380737123938D+03
                          Isotropic Fermi Contact Couplings
        Atom                 a.u.       MegaHertz       Gauss      10(-4) cm-1
     1  Co(59)             2.81171     991.51690     353.79789     330.73444
 --------------------------------------------------------
       Center         ----  Spin Dipole Couplings  ----
                      3XX-RR        3YY-RR        3ZZ-RR
 --------------------------------------------------------
     1   Atom       -0.000000      0.000000      0.000000
 --------------------------------------------------------
                        XY            XZ            YZ
 --------------------------------------------------------
     1   Atom        0.000000      0.000000      0.000000
 --------------------------------------------------------


 ---------------------------------------------------------------------------------
              Anisotropic Spin Dipole Couplings in Principal Axis System
 ---------------------------------------------------------------------------------

       Atom             a.u.   MegaHertz   Gauss  10(-4) cm-1        Axes

              Baa    -0.0000    -0.000    -0.000    -0.000  1.0000  0.0000  0.0000
     1 Co(59) Bbb     0.0000     0.000     0.000     0.000 -0.0000  1.0000  0.0000
              Bcc     0.0000     0.000     0.000     0.000  0.0000  0.0000  1.0000
 

 ---------------------------------------------------------------------------------

 No NMR shielding tensors so no spin-rotation constants.
 Leave Link  601 at Sun Apr 18 07:54:50 2021, MaxMem=   104857600 cpu:             238.5 elap:               5.1
 (Enter /s/ls4/users/knvvv/bin/g16sse/l801.exe)
 DoSCS=F DFT=T ScalE2(SS,OS)=  1.000000  1.000000
 Range of M.O.s used for correlation:     1    45
 NBasis=    45 NAE=    15 NBE=    12 NFC=     0 NFV=     0
 NROrb=     45 NOA=    15 NOB=    12 NVA=    30 NVB=    33
 Leave Link  801 at Sun Apr 18 07:54:50 2021, MaxMem=   104857600 cpu:               4.6 elap:               0.1
 (Enter /s/ls4/users/knvvv/bin/g16sse/l914.exe)
 UHF ground state
 Doing stability rather than CIS.
 Keep R1 and R2 ints in memory in symmetry-blocked form, NReq=59360624.
 FoFCou: FMM=F IPFlag=           0 FMFlag=           0 FMFlg1=           0
         NFxFlg=           0 DoJE=F BraDBF=F KetDBF=F FulRan=T
         wScrn=  0.000000 ICntrl=       600 IOpCl=  0 I1Cent=           0 NGrid=           0
         NMat0=    1 NMatS0=   1035 NMatT0=    0 NMatD0=    1 NMtDS0=    0 NMtDT0=    0
 Petite list used in FoFCou.
 MDV=   104857600 DFT=T DoStab=T Mixed=T DoRPA=F DoScal=F NonHer=F
 Making orbital integer symmetry assigments:
 Orbital symmetries:
 Alpha Orbitals:
       Occupied  (A1G) (A1G) (T1U) (T1U) (T1U) (A1G) (T1U) (T1U)
                 (T1U) (EG) (EG) (T2G) (T2G) (T2G) (A1G)
       Virtual   (T1U) (T1U) (T1U) (A1G) (EG) (EG) (T2G) (T2G)
                 (T2G) (EG) (EG) (T2G) (T2G) (T2G) (T1U) (T1U)
                 (T1U) (A1G) (EG) (EG) (T2G) (T2G) (T2G) (T1U)
                 (T1U) (T1U) (T2U) (T2U) (T2U) (A2U)
 Beta  Orbitals:
       Occupied  (A1G) (A1G) (T1U) (T1U) (T1U) (A1G) (T1U) (T1U)
                 (T1U) (T2G) (T2G) (T2G)
       Virtual   (A1G) (EG) (EG) (T1U) (T1U) (T1U) (A1G) (T2G)
                 (T2G) (T2G) (EG) (EG) (EG) (EG) (T2G) (T2G) (T2G)
                 (T1U) (T1U) (T1U) (A1G) (T2G) (T2G) (T2G) (EG)
                 (EG) (A2U) (T2U) (T2U) (T2U) (T1U) (T1U) (T1U)
    24 initial guesses have been made.
 Convergence on wavefunction:    0.001000000000000
 Davidson Disk Diagonalization:  ConvIn= 1.00D-03 SkipCon=T Conv= 1.00D-03.
 Max sub-space:  1692 roots to seek:    24 dimension of matrix:          846
 Iteration     1 Dimension    24 NMult     0 NNew     24
 CISAX will form    24 AO SS matrices at one time.
 NMat=    24 NSing=    24 JSym2X= 2.
 Excitation Energies [eV] at current iteration:
 Root      1 :     0.292994074071628
 Root      2 :     0.292994074071955
 Root      3 :     0.519502515577846
 Root      4 :     3.223404122118169
 Root      5 :     3.223404122119498
 Root      6 :     3.224407199023478
 Root      7 :     3.308520684978975
 Root      8 :     3.308520684979839
 Root      9 :     3.308520684980461
 Root     10 :     4.344993259168881
 Root     11 :     4.344993259169557
 Root     12 :     5.150385143344465
 Root     13 :     5.348415075780599
 Root     14 :     5.348415075780883
 Root     15 :     5.348415075781016
 Root     16 :     5.925526815582166
 Root     17 :     5.925526815582583
 Root     18 :     5.925526815582855
 Root     19 :     7.615399795420995
 Root     20 :     7.615399795424136
 Root     21 :     8.239820162699857
 Root     22 :     8.759846778241698
 Root     23 :     8.759846778242043
 Root     24 :     8.759846778242272
 Iteration     2 Dimension    48 NMult    24 NNew     24
 CISAX will form    24 AO SS matrices at one time.
 NMat=    24 NSing=    24 JSym2X= 2.
 Root      1 not converged, maximum delta is    0.278074113154758
 Excitation Energies [eV] at current iteration:
 Root      1 :    -0.176379562356301   Change is   -0.469373636427929
 Root      2 :    -0.176379562355246   Change is   -0.469373636427201
 Root      3 :    -0.168211498846950   Change is   -0.687714014424796
 Root      4 :     0.018124384898231   Change is   -3.290396300080744
 Root      5 :     0.018124384899198   Change is   -3.290396300080641
 Root      6 :     0.018124384899615   Change is   -3.290396300080847
 Root      7 :     0.947251854816368   Change is   -2.276152267301802
 Root      8 :     0.947251854818362   Change is   -2.276152267301137
 Root      9 :     0.955226364418745   Change is   -2.269180834604733
 Root     10 :     4.304173748111781   Change is   -0.040819511057100
 Root     11 :     4.304173748112476   Change is   -0.040819511057082
 Root     12 :     4.875926198303439   Change is   -0.274458945041025
 Root     13 :     5.157043630211576   Change is   -0.191371445569023
 Root     14 :     5.157043630211787   Change is   -0.191371445569095
 Root     15 :     5.157043630211999   Change is   -0.191371445569017
 Root     16 :     5.758472934655992   Change is   -0.167053880926175
 Root     17 :     5.758472934656402   Change is   -0.167053880926181
 Root     18 :     5.758472934656626   Change is   -0.167053880926229
 Root     19 :     6.495241081299830   Change is   -2.264605696942442
 Root     20 :     6.495241081300102   Change is   -2.264605696941596
 Root     21 :     6.495241081300766   Change is   -2.264605696941276
 Root     22 :     7.361946545582856   Change is   -0.253453249838139
 Root     23 :     7.361946545586070   Change is   -0.253453249838067
 Root     24 :     7.918254401641446   Change is   -0.321565761058412
 Iteration     3 Dimension    51 NMult    48 NNew      3
 CISAX will form     3 AO SS matrices at one time.
 NMat=     3 NSing=     3 JSym2X= 2.
 Root      1 not converged, maximum delta is    0.015646144333944
 Excitation Energies [eV] at current iteration:
 Root      1 :    -0.196170855356697   Change is   -0.019791293000396
 Root      2 :    -0.196170855355640   Change is   -0.019791293000393
 Root      3 :    -0.195878995128273   Change is   -0.027667496281323
 Iteration     4 Dimension    54 NMult    51 NNew      3
 CISAX will form     3 AO SS matrices at one time.
 NMat=     3 NSing=     3 JSym2X= 2.
 Root      1 not converged, maximum delta is    0.012324582365593
 Excitation Energies [eV] at current iteration:
 Root      1 :    -0.196356774758617   Change is   -0.000185919401920
 Root      2 :    -0.196356774757526   Change is   -0.000185919401887
 Root      3 :    -0.196350633052129   Change is   -0.000471637923856
 Iteration     5 Dimension    57 NMult    54 NNew      3
 CISAX will form     3 AO SS matrices at one time.
 NMat=     3 NSing=     3 JSym2X= 2.
 DSYEVD-2 returned Info=         115 IAlg= 4 N=    57 NDim=    57 NE2=     1736322 trying  DSYEV.
 Root      1 not converged, maximum delta is    0.002519083772316
 Excitation Energies [eV] at current iteration:
 Root      1 :    -0.196359786241136   Change is   -0.000003011482519
 Root      2 :    -0.196359786240024   Change is   -0.000003011482498
 Root      3 :    -0.196359720903716   Change is   -0.000009087851587
 Convergence on energies, max DE= 9.09D-06.
 Convergence on expansion vectors.
 ***********************************************************************
 Stability analysis using <AA,BB:AA,BB> singles matrix:
 ***********************************************************************
 1PDM for each excited state written to RWF  633
 Ground to excited state transition densities written to RWF  633

 Eigenvectors of the stability matrix:
 
 Eigenvector   1:  4.018-T2G  Eigenvalue=-0.0072161  <S**2>=3.786
     10B -> 15B        0.22659
     10B -> 23B       -0.11511
     11B -> 13B        0.21493
     11B -> 14B       -0.16333
     11B -> 15B       -0.21747
     11B -> 23B        0.14256
     12B -> 13B        0.65164
     12B -> 15B       -0.50523
     12B -> 19B        0.14795
     12B -> 23B        0.26180
 
 Excited state symmetry could not be determined.
 Eigenvector   2:  4.018-?Sym  Eigenvalue=-0.0072161  <S**2>=3.786
     10B -> 14B       -0.43854
     10B -> 24B        0.23880
     11B -> 13B        0.65164
     11B -> 14B        0.23956
     11B -> 15B        0.23311
     11B -> 19B        0.14795
     11B -> 23B       -0.16562
     12B -> 13B       -0.21493
     12B -> 14B       -0.23239
     12B -> 15B       -0.12773
     12B -> 23B        0.11084
 
 Excited state symmetry could not be determined.
 Eigenvector   3:  4.018-?Sym  Eigenvalue=-0.0072161  <S**2>=3.786
     10B -> 13B        0.68616
     10B -> 14B       -0.22046
     10B -> 15B        0.28653
     10B -> 19B        0.15576
     10B -> 23B       -0.10128
     10B -> 24B        0.16855
     11B -> 14B       -0.41588
     11B -> 15B        0.15110
     11B -> 24B        0.24059
     12B -> 14B        0.13918
     12B -> 15B        0.18876
     12B -> 23B       -0.12322
 The wavefunction has an internal instability.
 Leave Link  914 at Sun Apr 18 07:54:59 2021, MaxMem=   104857600 cpu:             407.8 elap:               8.7
 (Enter /s/ls4/users/knvvv/bin/g16sse/l508.exe)
 Keep R1 and R2 ints in memory in symmetry-blocked form, NReq=42597788.
 FoFCou: FMM=F IPFlag=           0 FMFlag=           0 FMFlg1=           0
         NFxFlg=           0 DoJE=F BraDBF=F KetDBF=F FulRan=T
         wScrn=  0.000000 ICntrl=       600 IOpCl=  0 I1Cent=           0 NGrid=           0
         NMat0=    1 NMatS0=   1035 NMatT0=    0 NMatD0=    1 NMtDS0=    0 NMtDT0=    0
 Petite list used in FoFCou.
 Tight linear equation convergence will be used.
 UM062X wavefunction.
 Quadratic Convergence SCF Method.
 Line search only if initial step raises energy.
 Perform preliminary linear searches along instability eigenvector.
     ILin= 1 X=0.000D+00 Y=-1.382661182283D+03 DE= 0.00D+00
     ILin= 2 X=1.000D-01 Y=-1.382661276794D+03 DE=-9.45D-05
     ILin= 3 X=1.414D-01 Y=-1.382661387294D+03 DE=-2.05D-04
     ILin= 4 X=2.000D-01 Y=-1.382661514255D+03 DE=-3.32D-04
     ILin= 5 X=2.828D-01 Y=-1.382661131522D+03 DE= 5.08D-05
     An  expanding polynomial of degree  5 produced  0.2089
 Iteration F X= 2.089D-01 EE=-1.382661517713367D+03
     ILin= 1 X=0.000D+00 Y=-1.382661182283D+03 DE= 0.00D+00
     ILin= 2 X=1.000D-01 Y=-1.382661277228D+03 DE=-9.49D-05
     ILin= 3 X=1.414D-01 Y=-1.382661388336D+03 DE=-2.06D-04
     ILin= 4 X=2.000D-01 Y=-1.382661517241D+03 DE=-3.35D-04
     ILin= 5 X=2.828D-01 Y=-1.382661143704D+03 DE= 3.86D-05
     An  expanding polynomial of degree  5 produced  0.2096
 Iteration B X= 2.096D-01 EE=-1.382661521233757D+03
 Take backward step, X= 2.096D-01 Step= 2.096D-01
 Iteration   1 EE= -1382.66151847147                                    Grad=1.887D-02 Max rot=    0.2210 deg.
 Gradient too large for Newton-Raphson -- use scaled steepest descent instead.
 Alpha Gap=     0.308 HL deriv= 2.83D-16
  Beta Gap=     0.155 HL deriv= 1.69D-03
     ILin= 1 X=0.000D+00 Y=-1.382661518471D+03 DE= 0.00D+00 F= -4.71D-04
     ILin= 2 X=3.000D-01 Y=-1.382661608827D+03 DE=-9.04D-05 F= -1.32D-04
     ILin= 3 X=6.000D-01 Y=-1.382661597812D+03 DE=-7.93D-05 F=  2.05D-04
     An  expanding polynomial of degree  3 produced  0.4174
 Iteration   2 EE= -1382.66161656020     Delta-E=       -0.000098088730 Grad=7.066D-03 Max rot=    0.1172 deg.
 QCNR:  CnvC1=2.91D-09 CnvC2=2.91D-08
 LinEq1:  Iter=  0 NonCon=     1 RMS=3.83D-04 Max=7.54D-03 NDo=     1
 AX will form     1 AO Fock derivatives at one time.
 LinEq1:  Iter=  1 NonCon=     1 RMS=2.44D-04 Max=2.78D-03 NDo=     1
 LinEq1:  Iter=  2 NonCon=     1 RMS=2.44D-04 Max=3.53D-03 NDo=     1
 LinEq1:  Iter=  3 NonCon=     1 RMS=6.43D-05 Max=1.08D-03 NDo=     1
 LinEq1:  Iter=  4 NonCon=     1 RMS=2.19D-05 Max=3.05D-04 NDo=     1
 LinEq1:  Iter=  5 NonCon=     1 RMS=4.06D-06 Max=3.23D-05 NDo=     1
 LinEq1:  Iter=  6 NonCon=     1 RMS=6.50D-07 Max=8.96D-06 NDo=     1
 LinEq1:  Iter=  7 NonCon=     1 RMS=1.57D-07 Max=2.74D-06 NDo=     1
 LinEq1:  Iter=  8 NonCon=     1 RMS=5.06D-08 Max=6.64D-07 NDo=     1
 LinEq1:  Iter=  9 NonCon=     1 RMS=9.62D-09 Max=1.13D-07 NDo=     1
 LinEq1:  Iter= 10 NonCon=     1 RMS=3.96D-09 Max=5.50D-08 NDo=     1
 LinEq1:  Iter= 11 NonCon=     0 RMS=7.99D-10 Max=8.97D-09 NDo=     1
 Linear equations converged to 2.909D-09 2.909D-08 after    11 iterations.
 Angle between quadratic step and gradient=  84.64 degrees.
     ILin= 1 X=0.000D+00 Y=-1.382661616560D+03 DE= 0.00D+00 F= -7.35D-05
     ILin= 2 X=1.000D+00 Y=-1.382661634958D+03 DE=-1.84D-05 F=  4.58D-05
     Accept linear search using points  1 and  2.
     An  expanding polynomial of degree  2 produced  0.6676
 Iteration   3 EE= -1382.66164246982     Delta-E=       -0.000025909611 Grad=3.213D-03 Max rot=    0.0572 deg.
 QCNR:  CnvC1=2.91D-09 CnvC2=2.91D-08
 LinEq1:  Iter=  0 NonCon=     1 RMS=1.21D-04 Max=2.08D-03 NDo=     1
 LinEq1:  Iter=  1 NonCon=     1 RMS=5.32D-05 Max=4.76D-04 NDo=     1
 LinEq1:  Iter=  2 NonCon=     1 RMS=7.48D-05 Max=9.47D-04 NDo=     1
 LinEq1:  Iter=  3 NonCon=     1 RMS=3.09D-05 Max=3.42D-04 NDo=     1
 LinEq1:  Iter=  4 NonCon=     1 RMS=9.91D-06 Max=1.83D-04 NDo=     1
 LinEq1:  Iter=  5 NonCon=     1 RMS=2.34D-06 Max=3.56D-05 NDo=     1
 LinEq1:  Iter=  6 NonCon=     1 RMS=4.95D-07 Max=7.87D-06 NDo=     1
 LinEq1:  Iter=  7 NonCon=     1 RMS=1.68D-07 Max=2.65D-06 NDo=     1
 LinEq1:  Iter=  8 NonCon=     1 RMS=3.02D-08 Max=4.22D-07 NDo=     1
 LinEq1:  Iter=  9 NonCon=     1 RMS=4.53D-09 Max=5.22D-08 NDo=     1
 LinEq1:  Iter= 10 NonCon=     0 RMS=1.20D-09 Max=1.31D-08 NDo=     1
 Linear equations converged to 2.909D-09 2.909D-08 after    10 iterations.
 Angle between quadratic step and gradient=  89.07 degrees.
     ILin= 1 X=0.000D+00 Y=-1.382661642470D+03 DE= 0.00D+00 F= -3.07D-06
     ILin= 2 X=1.000D+00 Y=-1.382661643355D+03 DE=-8.86D-07 F=  1.85D-06
     Accept linear search using points  1 and  2.
     An  expanding polynomial of degree  2 produced  0.6966
 Iteration   4 EE= -1382.66164363360     Delta-E=       -0.000001163784 Grad=9.512D-04 Max rot=    0.0200 deg.
 QCNR:  CnvC1=2.91D-09 CnvC2=2.91D-08
 LinEq1:  Iter=  0 NonCon=     1 RMS=3.71D-05 Max=5.65D-04 NDo=     1
 LinEq1:  Iter=  1 NonCon=     1 RMS=1.47D-05 Max=1.83D-04 NDo=     1
 LinEq1:  Iter=  2 NonCon=     1 RMS=4.77D-06 Max=4.84D-05 NDo=     1
 LinEq1:  Iter=  3 NonCon=     1 RMS=3.58D-06 Max=4.72D-05 NDo=     1
 LinEq1:  Iter=  4 NonCon=     1 RMS=3.09D-06 Max=5.17D-05 NDo=     1
 LinEq1:  Iter=  5 NonCon=     1 RMS=7.41D-07 Max=1.03D-05 NDo=     1
 LinEq1:  Iter=  6 NonCon=     1 RMS=1.46D-07 Max=1.98D-06 NDo=     1
 LinEq1:  Iter=  7 NonCon=     1 RMS=5.19D-08 Max=8.23D-07 NDo=     1
 LinEq1:  Iter=  8 NonCon=     1 RMS=9.64D-09 Max=1.36D-07 NDo=     1
 LinEq1:  Iter=  9 NonCon=     1 RMS=2.32D-09 Max=3.99D-08 NDo=     1
 LinEq1:  Iter= 10 NonCon=     0 RMS=9.54D-10 Max=1.20D-08 NDo=     1
 Linear equations converged to 2.909D-09 2.909D-08 after    10 iterations.
 Angle between quadratic step and gradient=  91.43 degrees.
 Incorrect curvature in search direction -- initial direction reversed.
     ILin= 1 X=0.000D+00 Y=-1.382661643634D+03 DE= 0.00D+00 F= -5.40D-07
     ILin= 2 X=1.000D+00 Y=-1.382661644449D+03 DE=-8.16D-07 F= -1.10D-06
     ILin= 3 X=2.000D+00 Y=-1.382661645877D+03 DE=-2.24D-06 F= -1.77D-06
     ILin= 4 X=4.000D+00 Y=-1.382661651112D+03 DE=-7.48D-06 F= -3.58D-06
     ILin= 5 X=8.000D+00 Y=-1.382661676362D+03 DE=-3.27D-05 F= -9.44D-06
     ILin= 6 X=1.600D+01 Y=-1.382661761172D+03 DE=-1.18D-04 F= -1.82D-06
     ILin= 7 X=3.200D+01 Y=-1.382660041964D+03 DE= 1.60D-03 F=  2.61D-04
     An  expanding polynomial of degree  7 produced 16.6977
     Minimum is close to point  6 DX=  6.98D-01 DF= -1.32D-06 DXR=  4.18D-02 DFR=  1.13D-02 which will be used.
 Iteration   5 EE= -1382.66176117245     Delta-E=       -0.000117538849 Grad=2.131D-02 Max rot=    0.3328 deg.
 Gradient too large for Newton-Raphson -- use scaled steepest descent instead.
 Alpha Gap=     0.307 HL deriv= 4.74D-15
  Beta Gap=     0.149 HL deriv= 7.59D-03
     ILin= 1 X=0.000D+00 Y=-1.382661761172D+03 DE= 0.00D+00 F= -6.74D-04
     ILin= 2 X=4.000D-01 Y=-1.382661949064D+03 DE=-1.88D-04 F= -2.67D-04
     ILin= 3 X=7.000D-01 Y=-1.382661983742D+03 DE=-2.23D-04 F=  3.51D-05
     Accept linear search using points  2 and  3.
     An  expanding polynomial of degree  3 produced  0.5420
 Iteration   6 EE= -1382.66197676269     Delta-E=       -0.000215590239 Grad=1.255D-02 Max rot=    0.2466 deg.
 Gradient too large for Newton-Raphson -- use scaled steepest descent instead.
 Alpha Gap=     0.307 HL deriv= 2.37D-15
  Beta Gap=     0.141 HL deriv= 1.32D-02
     ILin= 1 X=0.000D+00 Y=-1.382661976763D+03 DE= 0.00D+00 F= -2.82D-04
     ILin= 2 X=5.000D-01 Y=-1.382662071137D+03 DE=-9.44D-05 F= -9.41D-05
     ILin= 3 X=1.000D+00 Y=-1.382662069457D+03 DE=-9.27D-05 F=  1.02D-04
     An  expanding polynomial of degree  3 produced  0.7413
 Iteration   7 EE= -1382.66208258808     Delta-E=       -0.000105825391 Grad=1.272D-02 Max rot=    0.1661 deg.
 Gradient too large for Newton-Raphson -- use scaled steepest descent instead.
 Alpha Gap=     0.307 HL deriv= 2.76D-16
  Beta Gap=     0.147 HL deriv= 4.63D-03
     ILin= 1 X=0.000D+00 Y=-1.382662082588D+03 DE= 0.00D+00 F= -2.21D-04
     ILin= 2 X=6.000D-01 Y=-1.382662137233D+03 DE=-5.46D-05 F=  3.85D-05
     Accept linear search using points  1 and  2.
     An  expanding polynomial of degree  2 produced  0.4056
 Iteration   8 EE= -1382.66213657667     Delta-E=       -0.000053988592 Grad=3.947D-03 Max rot=    0.0787 deg.
 QCNR:  CnvC1=2.91D-09 CnvC2=2.91D-08
 LinEq1:  Iter=  0 NonCon=     1 RMS=5.00D-04 Max=1.29D-02 NDo=     1
 LinEq1:  Iter=  1 NonCon=     1 RMS=1.98D-04 Max=2.06D-03 NDo=     1
 LinEq1:  Iter=  2 NonCon=     1 RMS=2.10D-04 Max=2.74D-03 NDo=     1
 LinEq1:  Iter=  3 NonCon=     1 RMS=9.19D-05 Max=1.65D-03 NDo=     1
 LinEq1:  Iter=  4 NonCon=     1 RMS=2.89D-05 Max=4.01D-04 NDo=     1
 LinEq1:  Iter=  5 NonCon=     1 RMS=6.47D-06 Max=7.11D-05 NDo=     1
 LinEq1:  Iter=  6 NonCon=     1 RMS=2.65D-06 Max=4.10D-05 NDo=     1
 LinEq1:  Iter=  7 NonCon=     1 RMS=5.26D-07 Max=5.01D-06 NDo=     1
 LinEq1:  Iter=  8 NonCon=     1 RMS=1.13D-07 Max=2.13D-06 NDo=     1
 LinEq1:  Iter=  9 NonCon=     1 RMS=3.46D-08 Max=3.53D-07 NDo=     1
 LinEq1:  Iter= 10 NonCon=     1 RMS=6.64D-09 Max=7.81D-08 NDo=     1
 LinEq1:  Iter= 11 NonCon=     0 RMS=2.27D-09 Max=2.31D-08 NDo=     1
 Linear equations converged to 2.909D-09 2.909D-08 after    11 iterations.
 Angle between quadratic step and gradient=  74.17 degrees.
     ILin= 1 X=0.000D+00 Y=-1.382662136577D+03 DE= 0.00D+00 F= -2.20D-04
     ILin= 2 X=1.000D+00 Y=-1.382662168647D+03 DE=-3.21D-05 F=  2.32D-04
     Accept linear search using points  1 and  2.
     An  expanding polynomial of degree  2 produced  0.6098
 Iteration   9 EE= -1382.66221243860     Delta-E=       -0.000075861928 Grad=2.312D-03 Max rot=    0.0300 deg.
 QCNR:  CnvC1=2.91D-09 CnvC2=2.91D-08
 LinEq1:  Iter=  0 NonCon=     1 RMS=1.83D-04 Max=3.44D-03 NDo=     1
 LinEq1:  Iter=  1 NonCon=     1 RMS=1.51D-04 Max=2.35D-03 NDo=     1
 LinEq1:  Iter=  2 NonCon=     1 RMS=1.12D-04 Max=1.39D-03 NDo=     1
 LinEq1:  Iter=  3 NonCon=     1 RMS=4.03D-05 Max=4.32D-04 NDo=     1
 LinEq1:  Iter=  4 NonCon=     1 RMS=1.68D-05 Max=2.31D-04 NDo=     1
 LinEq1:  Iter=  5 NonCon=     1 RMS=3.49D-06 Max=4.99D-05 NDo=     1
 LinEq1:  Iter=  6 NonCon=     1 RMS=8.38D-07 Max=9.65D-06 NDo=     1
 LinEq1:  Iter=  7 NonCon=     1 RMS=3.24D-07 Max=4.02D-06 NDo=     1
 LinEq1:  Iter=  8 NonCon=     1 RMS=5.77D-08 Max=5.91D-07 NDo=     1
 LinEq1:  Iter=  9 NonCon=     1 RMS=1.38D-08 Max=1.66D-07 NDo=     1
 LinEq1:  Iter= 10 NonCon=     1 RMS=5.38D-09 Max=4.54D-08 NDo=     1
 LinEq1:  Iter= 11 NonCon=     0 RMS=9.20D-10 Max=1.13D-08 NDo=     1
 Linear equations converged to 2.909D-09 2.909D-08 after    11 iterations.
 Angle between quadratic step and gradient=  97.26 degrees.
 Incorrect curvature in search direction -- initial direction reversed.
     ILin= 1 X=0.000D+00 Y=-1.382662212439D+03 DE= 0.00D+00 F= -3.55D-05
     ILin= 2 X=1.000D+00 Y=-1.382662268931D+03 DE=-5.65D-05 F= -7.72D-05
     ILin= 3 X=1.800D+00 Y=-1.382662328115D+03 DE=-1.16D-04 F= -5.05D-05
     Reject lnstep minimum 3.417D+00 FVal=-1.382662408469D+03 Lims=  1.00D+00  1.80D+00
     ILin= 4 X=3.200D+00 Y=-1.382662133975D+03 DE= 7.85D-05 F=  4.32D-04
     An  expanding polynomial of degree  4 produced  1.9959
     Minimum is close to point  3 DX=  1.96D-01 DF= -3.44D-06 DXR=  9.82D-02 DFR=  2.98D-02 which will be used.
 Iteration  10 EE= -1382.66232811534     Delta-E=       -0.000115676745 Grad=1.191D-02 Max rot=    0.1443 deg.
 Gradient too large for Newton-Raphson -- use scaled steepest descent instead.
 Alpha Gap=     0.306 HL deriv= 6.45D-16
  Beta Gap=     0.135 HL deriv= 9.16D-03
     ILin= 1 X=0.000D+00 Y=-1.382662328115D+03 DE= 0.00D+00 F= -2.93D-04
     ILin= 2 X=5.000D-01 Y=-1.382662421510D+03 DE=-9.34D-05 F= -8.09D-05
     ILin= 3 X=1.100D+00 Y=-1.382662394436D+03 DE=-6.63D-05 F=  1.71D-04
     An  expanding polynomial of degree  3 produced  0.6930
 Iteration  11 EE= -1382.66242928591     Delta-E=       -0.000101170564 Grad=1.096D-02 Max rot=    0.1353 deg.
 Gradient too large for Newton-Raphson -- use scaled steepest descent instead.
 Alpha Gap=     0.306 HL deriv= 1.52D-15
  Beta Gap=     0.127 HL deriv= 1.73D-02
     ILin= 1 X=0.000D+00 Y=-1.382662429286D+03 DE= 0.00D+00 F= -2.34D-04
     ILin= 2 X=5.000D-01 Y=-1.382662491061D+03 DE=-6.18D-05 F= -1.23D-05
     Reject lnstep minimum 6.161D-01 FVal=-1.382662492930D+03 Lims=  0.00D+00  5.00D-01
     ILin= 3 X=1.100D+00 Y=-1.382662416253D+03 DE= 1.30D-05 F=  2.63D-04
     An  expanding polynomial of degree  3 produced  0.5237
     Minimum is close to point  2 DX=  2.37D-02 DF= -1.27D-07 DXR=  4.53D-02 DFR=  2.06D-03 which will be used.
 Iteration  12 EE= -1382.66249106115     Delta-E=       -0.000061775244 Grad=7.412D-03 Max rot=    0.0870 deg.
 QCNR:  CnvC1=2.91D-09 CnvC2=2.91D-08
 LinEq1:  Iter=  0 NonCon=     1 RMS=4.60D-04 Max=8.90D-03 NDo=     1
 LinEq1:  Iter=  1 NonCon=     1 RMS=4.90D-04 Max=7.15D-03 NDo=     1
 LinEq1:  Iter=  2 NonCon=     1 RMS=2.07D-04 Max=2.40D-03 NDo=     1
 LinEq1:  Iter=  3 NonCon=     1 RMS=5.71D-05 Max=1.05D-03 NDo=     1
 LinEq1:  Iter=  4 NonCon=     1 RMS=2.35D-05 Max=3.59D-04 NDo=     1
 LinEq1:  Iter=  5 NonCon=     1 RMS=4.85D-06 Max=6.36D-05 NDo=     1
 LinEq1:  Iter=  6 NonCon=     1 RMS=9.74D-07 Max=1.16D-05 NDo=     1
 LinEq1:  Iter=  7 NonCon=     1 RMS=3.74D-07 Max=4.29D-06 NDo=     1
 LinEq1:  Iter=  8 NonCon=     1 RMS=5.86D-08 Max=6.33D-07 NDo=     1
 LinEq1:  Iter=  9 NonCon=     1 RMS=2.10D-08 Max=2.67D-07 NDo=     1
 LinEq1:  Iter= 10 NonCon=     1 RMS=7.67D-09 Max=8.16D-08 NDo=     1
 LinEq1:  Iter= 11 NonCon=     0 RMS=1.23D-09 Max=1.62D-08 NDo=     1
 Linear equations converged to 2.909D-09 2.909D-08 after    11 iterations.
 Angle between quadratic step and gradient=  70.67 degrees.
     ILin= 1 X=0.000D+00 Y=-1.382662491061D+03 DE= 0.00D+00 F= -8.55D-04
     ILin= 2 X=1.000D+00 Y=-1.382662090310D+03 DE= 4.01D-04 F=  2.08D-03
     Reject lnstep minimum 3.926D-01 FVal=-1.382662669932D+03 Lims=  0.00D+00  1.00D+00
     ILin= 3 X=4.000D-01 Y=-1.382662699159D+03 DE=-2.08D-04 F= -3.30D-05
     A contracting polynomial of degree  3 produced  0.3695
     Minimum is close to point  3 DX= -3.05D-02 DF= -1.43D-06 DXR=  8.27D-02 DFR=  6.88D-03 which will be used.
 Iteration  13 EE= -1382.66269915896     Delta-E=       -0.000208097806 Grad=6.470D-03 Max rot=    0.0930 deg.
 QCNR:  CnvC1=2.91D-09 CnvC2=2.91D-08
 LinEq1:  Iter=  0 NonCon=     1 RMS=2.61D-04 Max=2.78D-03 NDo=     1
 LinEq1:  Iter=  1 NonCon=     1 RMS=4.53D-04 Max=1.08D-02 NDo=     1
 LinEq1:  Iter=  2 NonCon=     1 RMS=1.80D-04 Max=2.70D-03 NDo=     1
 LinEq1:  Iter=  3 NonCon=     1 RMS=3.67D-05 Max=4.64D-04 NDo=     1
 LinEq1:  Iter=  4 NonCon=     1 RMS=1.15D-05 Max=1.65D-04 NDo=     1
 LinEq1:  Iter=  5 NonCon=     1 RMS=3.88D-06 Max=4.81D-05 NDo=     1
 LinEq1:  Iter=  6 NonCon=     1 RMS=5.60D-07 Max=6.19D-06 NDo=     1
 LinEq1:  Iter=  7 NonCon=     1 RMS=1.75D-07 Max=2.53D-06 NDo=     1
 LinEq1:  Iter=  8 NonCon=     1 RMS=4.20D-08 Max=3.55D-07 NDo=     1
 LinEq1:  Iter=  9 NonCon=     1 RMS=9.54D-09 Max=9.26D-08 NDo=     1
 LinEq1:  Iter= 10 NonCon=     1 RMS=3.63D-09 Max=3.23D-08 NDo=     1
 LinEq1:  Iter= 11 NonCon=     0 RMS=9.58D-10 Max=1.36D-08 NDo=     1
 Linear equations converged to 2.909D-09 2.909D-08 after    11 iterations.
 Angle between quadratic step and gradient=  76.75 degrees.
     ILin= 1 X=0.000D+00 Y=-1.382662699159D+03 DE= 0.00D+00 F= -1.05D-04
     ILin= 2 X=1.000D+00 Y=-1.382662754423D+03 DE=-5.53D-05 F= -8.05D-06
     Reject lnstep minimum 1.091D+00 FVal=-1.382662754788D+03 Lims=  0.00D+00  1.00D+00
     ILin= 3 X=2.000D+00 Y=-1.382662720335D+03 DE=-2.12D-05 F=  7.38D-05
     An  expanding polynomial of degree  3 produced  1.1185
 Iteration  14 EE= -1382.66275475412     Delta-E=       -0.000055595160 Grad=4.070D-04 Max rot=    0.0081 deg.
 QCNR:  CnvC1=2.91D-09 CnvC2=2.91D-08
 LinEq1:  Iter=  0 NonCon=     1 RMS=2.19D-05 Max=4.20D-04 NDo=     1
 LinEq1:  Iter=  1 NonCon=     1 RMS=9.51D-06 Max=1.08D-04 NDo=     1
 LinEq1:  Iter=  2 NonCon=     1 RMS=1.40D-05 Max=2.05D-04 NDo=     1
 LinEq1:  Iter=  3 NonCon=     1 RMS=4.95D-06 Max=4.58D-05 NDo=     1
 LinEq1:  Iter=  4 NonCon=     1 RMS=8.92D-07 Max=1.28D-05 NDo=     1
 LinEq1:  Iter=  5 NonCon=     1 RMS=3.38D-07 Max=4.92D-06 NDo=     1
 LinEq1:  Iter=  6 NonCon=     1 RMS=5.51D-08 Max=5.14D-07 NDo=     1
 LinEq1:  Iter=  7 NonCon=     1 RMS=1.25D-08 Max=1.41D-07 NDo=     1
 LinEq1:  Iter=  8 NonCon=     1 RMS=4.11D-09 Max=6.19D-08 NDo=     1
 LinEq1:  Iter=  9 NonCon=     0 RMS=7.78D-10 Max=9.19D-09 NDo=     1
 Linear equations converged to 2.909D-09 2.909D-08 after     9 iterations.
 Angle between quadratic step and gradient=  72.51 degrees.
     ILin= 1 X=0.000D+00 Y=-1.382662754754D+03 DE= 0.00D+00 F= -6.64D-07
     ILin= 2 X=1.000D+00 Y=-1.382662755087D+03 DE=-3.32D-07 F= -7.42D-10
     Reject lnstep minimum 1.001D+00 FVal=-1.382662755087D+03 Lims=  0.00D+00  1.00D+00
     ILin= 3 X=2.000D+00 Y=-1.382662754756D+03 DE=-1.58D-09 F=  6.62D-07
     An  expanding polynomial of degree  3 produced  1.0012
     Minimum is close to point  2 DX=  1.19D-03 DF= -2.27D-13 DXR=  1.19D-03 DFR=  6.84D-07 which will be used.
 Iteration  15 EE= -1382.66275508653     Delta-E=       -0.000000332414 Grad=1.102D-05 Max rot=    0.0002 deg.
 QCNR:  CnvC1=1.10D-10 CnvC2=1.10D-09
 LinEq1:  Iter=  0 NonCon=     1 RMS=3.00D-07 Max=3.96D-06 NDo=     1
 LinEq1:  Iter=  1 NonCon=     1 RMS=1.09D-07 Max=9.57D-07 NDo=     1
 LinEq1:  Iter=  2 NonCon=     1 RMS=2.47D-07 Max=5.16D-06 NDo=     1
 LinEq1:  Iter=  3 NonCon=     1 RMS=8.93D-08 Max=7.59D-07 NDo=     1
 LinEq1:  Iter=  4 NonCon=     1 RMS=1.95D-08 Max=2.27D-07 NDo=     1
 LinEq1:  Iter=  5 NonCon=     1 RMS=6.82D-09 Max=6.35D-08 NDo=     1
 LinEq1:  Iter=  6 NonCon=     1 RMS=1.43D-09 Max=1.63D-08 NDo=     1
 LinEq1:  Iter=  7 NonCon=     1 RMS=2.79D-10 Max=3.37D-09 NDo=     1
 LinEq1:  Iter=  8 NonCon=     1 RMS=1.04D-10 Max=1.24D-09 NDo=     1
 LinEq1:  Iter=  9 NonCon=     0 RMS=1.80D-11 Max=2.15D-10 NDo=     1
 Linear equations converged to 1.102D-10 1.102D-09 after     9 iterations.
 Angle between quadratic step and gradient=  86.37 degrees.
     ILin= 1 X=0.000D+00 Y=-1.382662755087D+03 DE= 0.00D+00 F= -3.34D-09
     ILin= 2 X=1.000D+00 Y=-1.382662755088D+03 DE=-1.76D-09
 Iteration  16 EE= -1382.66275508829     Delta-E=       -0.000000001761 Grad=5.054D-05 Max rot=    0.0009 deg.
 QCNR:  CnvC1=5.05D-10 CnvC2=5.05D-09
 LinEq1:  Iter=  0 NonCon=     1 RMS=1.37D-06 Max=1.46D-05 NDo=     1
 LinEq1:  Iter=  1 NonCon=     1 RMS=6.42D-07 Max=1.01D-05 NDo=     1
 LinEq1:  Iter=  2 NonCon=     1 RMS=8.51D-07 Max=1.25D-05 NDo=     1
 LinEq1:  Iter=  3 NonCon=     1 RMS=3.00D-07 Max=3.33D-06 NDo=     1
 LinEq1:  Iter=  4 NonCon=     1 RMS=6.51D-08 Max=7.05D-07 NDo=     1
 LinEq1:  Iter=  5 NonCon=     1 RMS=2.30D-08 Max=2.68D-07 NDo=     1
 LinEq1:  Iter=  6 NonCon=     1 RMS=4.37D-09 Max=5.41D-08 NDo=     1
 LinEq1:  Iter=  7 NonCon=     1 RMS=1.28D-09 Max=1.44D-08 NDo=     1
 LinEq1:  Iter=  8 NonCon=     1 RMS=5.10D-10 Max=4.91D-09 NDo=     1
 LinEq1:  Iter=  9 NonCon=     0 RMS=8.18D-11 Max=8.03D-10 NDo=     1
 Linear equations converged to 5.054D-10 5.054D-09 after     9 iterations.
 Angle between quadratic step and gradient=  85.01 degrees.
     ILin= 1 X=0.000D+00 Y=-1.382662755088D+03 DE= 0.00D+00 F= -3.17D-09
     ILin= 2 X=1.000D+00 Y=-1.382662755090D+03 DE=-1.40D-09
 Iteration  17 EE= -1382.66275508970     Delta-E=       -0.000000001403 Grad=2.147D-05 Max rot=    0.0003 deg.
 QCNR:  CnvC1=2.15D-10 CnvC2=2.15D-09
 LinEq1:  Iter=  0 NonCon=     1 RMS=4.91D-07 Max=4.70D-06 NDo=     1
 LinEq1:  Iter=  1 NonCon=     1 RMS=2.08D-07 Max=1.78D-06 NDo=     1
 LinEq1:  Iter=  2 NonCon=     1 RMS=4.97D-07 Max=1.13D-05 NDo=     1
 LinEq1:  Iter=  3 NonCon=     1 RMS=1.45D-07 Max=1.41D-06 NDo=     1
 LinEq1:  Iter=  4 NonCon=     1 RMS=2.75D-08 Max=3.19D-07 NDo=     1
 LinEq1:  Iter=  5 NonCon=     1 RMS=9.62D-09 Max=9.00D-08 NDo=     1
 LinEq1:  Iter=  6 NonCon=     1 RMS=1.91D-09 Max=1.91D-08 NDo=     1
 LinEq1:  Iter=  7 NonCon=     1 RMS=5.85D-10 Max=7.79D-09 NDo=     1
 LinEq1:  Iter=  8 NonCon=     1 RMS=1.93D-10 Max=2.20D-09 NDo=     1
 LinEq1:  Iter=  9 NonCon=     0 RMS=3.18D-11 Max=3.62D-10 NDo=     1
 Linear equations converged to 2.147D-10 2.147D-09 after     9 iterations.
 Angle between quadratic step and gradient=  86.24 degrees.
     ILin= 1 X=0.000D+00 Y=-1.382662755090D+03 DE= 0.00D+00 F= -1.02D-09
     ILin= 2 X=1.000D+00 Y=-1.382662755090D+03 DE=-4.77D-10
 Iteration  18 EE= -1382.66275509017     Delta-E=       -0.000000000477 Grad=2.975D-05 Max rot=    0.0005 deg.
 QCNR:  CnvC1=2.97D-10 CnvC2=2.97D-09
 LinEq1:  Iter=  0 NonCon=     1 RMS=4.88D-07 Max=6.72D-06 NDo=     1
 LinEq1:  Iter=  1 NonCon=     1 RMS=4.27D-07 Max=8.14D-06 NDo=     1
 LinEq1:  Iter=  2 NonCon=     1 RMS=2.91D-07 Max=3.99D-06 NDo=     1
 LinEq1:  Iter=  3 NonCon=     1 RMS=1.11D-07 Max=1.36D-06 NDo=     1
 LinEq1:  Iter=  4 NonCon=     1 RMS=2.60D-08 Max=3.43D-07 NDo=     1
 LinEq1:  Iter=  5 NonCon=     1 RMS=8.03D-09 Max=1.10D-07 NDo=     1
 LinEq1:  Iter=  6 NonCon=     1 RMS=1.72D-09 Max=1.46D-08 NDo=     1
 LinEq1:  Iter=  7 NonCon=     1 RMS=3.62D-10 Max=3.52D-09 NDo=     1
 LinEq1:  Iter=  8 NonCon=     0 RMS=1.49D-10 Max=1.60D-09 NDo=     1
 Linear equations converged to 2.975D-10 2.975D-09 after     8 iterations.
 Angle between quadratic step and gradient=  88.17 degrees.
     ILin= 1 X=0.000D+00 Y=-1.382662755090D+03 DE= 0.00D+00 F= -8.62D-10
     ILin= 2 X=1.000D+00 Y=-1.382662755091D+03 DE=-4.71D-10
 Iteration  19 EE= -1382.66275509064     Delta-E=       -0.000000000471 Grad=2.196D-05 Max rot=    0.0004 deg.
 QCNR:  CnvC1=2.20D-10 CnvC2=2.20D-09
 LinEq1:  Iter=  0 NonCon=     1 RMS=3.62D-07 Max=4.29D-06 NDo=     1
 LinEq1:  Iter=  1 NonCon=     1 RMS=2.81D-07 Max=2.65D-06 NDo=     1
 LinEq1:  Iter=  2 NonCon=     1 RMS=4.90D-07 Max=8.39D-06 NDo=     1
 LinEq1:  Iter=  3 NonCon=     1 RMS=9.06D-08 Max=8.14D-07 NDo=     1
 LinEq1:  Iter=  4 NonCon=     1 RMS=2.79D-08 Max=4.18D-07 NDo=     1
 LinEq1:  Iter=  5 NonCon=     1 RMS=8.48D-09 Max=8.21D-08 NDo=     1
 LinEq1:  Iter=  6 NonCon=     1 RMS=1.88D-09 Max=2.50D-08 NDo=     1
 LinEq1:  Iter=  7 NonCon=     1 RMS=7.92D-10 Max=9.47D-09 NDo=     1
 LinEq1:  Iter=  8 NonCon=     0 RMS=1.15D-10 Max=1.35D-09 NDo=     1
 Linear equations converged to 2.196D-10 2.196D-09 after     8 iterations.
 Angle between quadratic step and gradient=  85.52 degrees.
     ILin= 1 X=0.000D+00 Y=-1.382662755091D+03 DE= 0.00D+00 F= -6.41D-10
     ILin= 2 X=1.000D+00 Y=-1.382662755091D+03 DE=-2.49D-10
 Iteration  20 EE= -1382.66275509089     Delta-E=       -0.000000000249 Grad=2.442D-05 Max rot=    0.0004 deg.
 QCNR:  CnvC1=2.44D-10 CnvC2=2.44D-09
 LinEq1:  Iter=  0 NonCon=     1 RMS=3.31D-07 Max=3.88D-06 NDo=     1
 LinEq1:  Iter=  1 NonCon=     1 RMS=2.99D-07 Max=5.15D-06 NDo=     1
 LinEq1:  Iter=  2 NonCon=     1 RMS=2.90D-07 Max=5.67D-06 NDo=     1
 LinEq1:  Iter=  3 NonCon=     1 RMS=9.71D-08 Max=1.22D-06 NDo=     1
 LinEq1:  Iter=  4 NonCon=     1 RMS=1.96D-08 Max=2.12D-07 NDo=     1
 LinEq1:  Iter=  5 NonCon=     1 RMS=6.29D-09 Max=9.58D-08 NDo=     1
 LinEq1:  Iter=  6 NonCon=     1 RMS=1.40D-09 Max=1.85D-08 NDo=     1
 LinEq1:  Iter=  7 NonCon=     1 RMS=3.47D-10 Max=4.05D-09 NDo=     1
 LinEq1:  Iter=  8 NonCon=     0 RMS=1.22D-10 Max=1.44D-09 NDo=     1
 Linear equations converged to 2.442D-10 2.442D-09 after     8 iterations.
 Angle between quadratic step and gradient=  87.45 degrees.
     ILin= 1 X=0.000D+00 Y=-1.382662755091D+03 DE= 0.00D+00 F= -6.35D-10
     ILin= 2 X=1.000D+00 Y=-1.382662755091D+03 DE=-3.05D-10
 Iteration  21 EE= -1382.66275509120     Delta-E=       -0.000000000305 Grad=1.709D-05 Max rot=    0.0003 deg.
 QCNR:  CnvC1=1.71D-10 CnvC2=1.71D-09
 LinEq1:  Iter=  0 NonCon=     1 RMS=2.91D-07 Max=3.43D-06 NDo=     1
 LinEq1:  Iter=  1 NonCon=     1 RMS=2.58D-07 Max=3.77D-06 NDo=     1
 LinEq1:  Iter=  2 NonCon=     1 RMS=3.33D-07 Max=3.46D-06 NDo=     1
 LinEq1:  Iter=  3 NonCon=     1 RMS=8.21D-08 Max=8.27D-07 NDo=     1
 LinEq1:  Iter=  4 NonCon=     1 RMS=2.60D-08 Max=3.46D-07 NDo=     1
 LinEq1:  Iter=  5 NonCon=     1 RMS=8.38D-09 Max=8.72D-08 NDo=     1
 LinEq1:  Iter=  6 NonCon=     1 RMS=1.76D-09 Max=2.55D-08 NDo=     1
 LinEq1:  Iter=  7 NonCon=     1 RMS=6.65D-10 Max=1.10D-08 NDo=     1
 LinEq1:  Iter=  8 NonCon=     0 RMS=1.03D-10 Max=1.14D-09 NDo=     1
 Linear equations converged to 1.709D-10 1.709D-09 after     8 iterations.
 Angle between quadratic step and gradient=  85.17 degrees.
     ILin= 1 X=0.000D+00 Y=-1.382662755091D+03 DE= 0.00D+00 F= -4.66D-10
     ILin= 2 X=1.000D+00 Y=-1.382662755091D+03 DE=-1.45D-10
 Iteration  22 EE= -1382.66275509134     Delta-E=       -0.000000000145 Grad=2.500D-05 Max rot=    0.0006 deg.
 QCNR:  CnvC1=2.50D-10 CnvC2=2.50D-09
 LinEq1:  Iter=  0 NonCon=     1 RMS=2.92D-07 Max=3.17D-06 NDo=     1
 LinEq1:  Iter=  1 NonCon=     1 RMS=2.86D-07 Max=5.02D-06 NDo=     1
 LinEq1:  Iter=  2 NonCon=     1 RMS=2.49D-07 Max=4.68D-06 NDo=     1
 LinEq1:  Iter=  3 NonCon=     1 RMS=8.83D-08 Max=1.04D-06 NDo=     1
 LinEq1:  Iter=  4 NonCon=     1 RMS=1.90D-08 Max=1.72D-07 NDo=     1
 LinEq1:  Iter=  5 NonCon=     1 RMS=5.97D-09 Max=9.67D-08 NDo=     1
 LinEq1:  Iter=  6 NonCon=     1 RMS=1.53D-09 Max=2.06D-08 NDo=     1
 LinEq1:  Iter=  7 NonCon=     1 RMS=3.47D-10 Max=4.89D-09 NDo=     1
 LinEq1:  Iter=  8 NonCon=     0 RMS=1.16D-10 Max=1.57D-09 NDo=     1
 Linear equations converged to 2.500D-10 2.500D-09 after     8 iterations.
 Angle between quadratic step and gradient=  87.56 degrees.
     ILin= 1 X=0.000D+00 Y=-1.382662755091D+03 DE= 0.00D+00 F= -6.18D-10
     ILin= 2 X=1.000D+00 Y=-1.382662755092D+03 DE=-3.26D-10
 Iteration  23 EE= -1382.66275509167     Delta-E=       -0.000000000326 Grad=1.054D-05 Max rot=    0.0001 deg.
 QCNR:  CnvC1=1.05D-10 CnvC2=1.05D-09
 LinEq1:  Iter=  0 NonCon=     1 RMS=2.37D-07 Max=3.15D-06 NDo=     1
 LinEq1:  Iter=  1 NonCon=     1 RMS=1.39D-07 Max=1.66D-06 NDo=     1
 LinEq1:  Iter=  2 NonCon=     1 RMS=2.39D-07 Max=3.47D-06 NDo=     1
 LinEq1:  Iter=  3 NonCon=     1 RMS=6.70D-08 Max=6.67D-07 NDo=     1
 LinEq1:  Iter=  4 NonCon=     1 RMS=2.28D-08 Max=3.56D-07 NDo=     1
 LinEq1:  Iter=  5 NonCon=     1 RMS=6.30D-09 Max=6.69D-08 NDo=     1
 LinEq1:  Iter=  6 NonCon=     1 RMS=1.42D-09 Max=1.71D-08 NDo=     1
 LinEq1:  Iter=  7 NonCon=     1 RMS=5.46D-10 Max=7.03D-09 NDo=     1
 LinEq1:  Iter=  8 NonCon=     0 RMS=8.15D-11 Max=6.94D-10 NDo=     1
 Linear equations converged to 1.054D-10 1.054D-09 after     8 iterations.
 Angle between quadratic step and gradient=  84.05 degrees.
     ILin= 1 X=0.000D+00 Y=-1.382662755092D+03 DE= 0.00D+00 F= -4.39D-10
     ILin= 2 X=1.000D+00 Y=-1.382662755092D+03 DE=-5.30D-11
 Iteration  24 EE= -1382.66275509172     Delta-E=       -0.000000000053 Grad=3.089D-05 Max rot=    0.0007 deg.
 QCNR:  CnvC1=3.09D-10 CnvC2=3.09D-09
 LinEq1:  Iter=  0 NonCon=     1 RMS=3.50D-07 Max=2.98D-06 NDo=     1
 LinEq1:  Iter=  1 NonCon=     1 RMS=2.84D-07 Max=4.67D-06 NDo=     1
 LinEq1:  Iter=  2 NonCon=     1 RMS=2.84D-07 Max=4.61D-06 NDo=     1
 LinEq1:  Iter=  3 NonCon=     1 RMS=1.05D-07 Max=1.26D-06 NDo=     1
 LinEq1:  Iter=  4 NonCon=     1 RMS=2.51D-08 Max=2.38D-07 NDo=     1
 LinEq1:  Iter=  5 NonCon=     1 RMS=7.63D-09 Max=1.13D-07 NDo=     1
 LinEq1:  Iter=  6 NonCon=     1 RMS=2.26D-09 Max=3.27D-08 NDo=     1
 LinEq1:  Iter=  7 NonCon=     1 RMS=4.38D-10 Max=7.39D-09 NDo=     1
 LinEq1:  Iter=  8 NonCon=     0 RMS=1.42D-10 Max=2.06D-09 NDo=     1
 Linear equations converged to 3.089D-10 3.089D-09 after     8 iterations.
 Angle between quadratic step and gradient=  87.13 degrees.
     ILin= 1 X=0.000D+00 Y=-1.382662755092D+03 DE= 0.00D+00 F= -7.80D-10
     ILin= 2 X=1.000D+00 Y=-1.382662755092D+03 DE=-3.57D-10
 Iteration  25 EE= -1382.66275509208     Delta-E=       -0.000000000357 Grad=9.546D-06 Max rot=    0.0002 deg.
 QCNR:  CnvC1=9.55D-11 CnvC2=9.55D-10
 LinEq1:  Iter=  0 NonCon=     1 RMS=2.08D-07 Max=3.00D-06 NDo=     1
 LinEq1:  Iter=  1 NonCon=     1 RMS=1.31D-07 Max=2.37D-06 NDo=     1
 LinEq1:  Iter=  2 NonCon=     1 RMS=9.03D-08 Max=1.26D-06 NDo=     1
 LinEq1:  Iter=  3 NonCon=     1 RMS=4.40D-08 Max=5.91D-07 NDo=     1
 LinEq1:  Iter=  4 NonCon=     1 RMS=1.97D-08 Max=2.92D-07 NDo=     1
 LinEq1:  Iter=  5 NonCon=     1 RMS=5.04D-09 Max=5.45D-08 NDo=     1
 LinEq1:  Iter=  6 NonCon=     1 RMS=1.05D-09 Max=1.27D-08 NDo=     1
 LinEq1:  Iter=  7 NonCon=     1 RMS=2.99D-10 Max=3.01D-09 NDo=     1
 LinEq1:  Iter=  8 NonCon=     0 RMS=5.52D-11 Max=4.25D-10 NDo=     1
 Linear equations converged to 9.546D-11 9.546D-10 after     8 iterations.
 Angle between quadratic step and gradient=  83.85 degrees.
     ILin= 1 X=0.000D+00 Y=-1.382662755092D+03 DE= 0.00D+00 F= -5.46D-10
     ILin= 2 X=1.000D+00 Y=-1.382662755092D+03 DE=-1.53D-10
 Iteration  26 EE= -1382.66275509223     Delta-E=       -0.000000000153 Grad=2.020D-05 Max rot=    0.0005 deg.
 QCNR:  CnvC1=2.02D-10 CnvC2=2.02D-09
 LinEq1:  Iter=  0 NonCon=     1 RMS=3.12D-07 Max=2.36D-06 NDo=     1
 LinEq1:  Iter=  1 NonCon=     1 RMS=1.28D-07 Max=1.62D-06 NDo=     1
 LinEq1:  Iter=  2 NonCon=     1 RMS=2.10D-07 Max=4.03D-06 NDo=     1
 LinEq1:  Iter=  3 NonCon=     1 RMS=1.04D-07 Max=1.05D-06 NDo=     1
 LinEq1:  Iter=  4 NonCon=     1 RMS=2.52D-08 Max=3.24D-07 NDo=     1
 LinEq1:  Iter=  5 NonCon=     1 RMS=9.91D-09 Max=1.13D-07 NDo=     1
 LinEq1:  Iter=  6 NonCon=     1 RMS=2.46D-09 Max=3.12D-08 NDo=     1
 LinEq1:  Iter=  7 NonCon=     1 RMS=6.83D-10 Max=8.99D-09 NDo=     1
 LinEq1:  Iter=  8 NonCon=     0 RMS=1.72D-10 Max=1.69D-09 NDo=     1
 Linear equations converged to 2.020D-10 2.020D-09 after     8 iterations.
 Angle between quadratic step and gradient=  82.99 degrees.
     ILin= 1 X=0.000D+00 Y=-1.382662755092D+03 DE= 0.00D+00 F= -5.77D-10
     ILin= 2 X=1.000D+00 Y=-1.382662755092D+03 DE=-1.69D-10
 Iteration  27 EE= -1382.66275509240     Delta-E=       -0.000000000169 Grad=2.041D-05 Max rot=    0.0004 deg.
 QCNR:  CnvC1=2.04D-10 CnvC2=2.04D-09
 LinEq1:  Iter=  0 NonCon=     1 RMS=2.47D-07 Max=2.48D-06 NDo=     1
 LinEq1:  Iter=  1 NonCon=     1 RMS=8.14D-08 Max=1.24D-06 NDo=     1
 LinEq1:  Iter=  2 NonCon=     1 RMS=1.34D-07 Max=2.59D-06 NDo=     1
 LinEq1:  Iter=  3 NonCon=     1 RMS=5.50D-08 Max=5.75D-07 NDo=     1
 LinEq1:  Iter=  4 NonCon=     1 RMS=1.55D-08 Max=1.96D-07 NDo=     1
 LinEq1:  Iter=  5 NonCon=     1 RMS=5.76D-09 Max=9.25D-08 NDo=     1
 LinEq1:  Iter=  6 NonCon=     1 RMS=1.20D-09 Max=1.55D-08 NDo=     1
 LinEq1:  Iter=  7 NonCon=     1 RMS=2.90D-10 Max=3.79D-09 NDo=     1
 LinEq1:  Iter=  8 NonCon=     0 RMS=9.77D-11 Max=7.40D-10 NDo=     1
 Linear equations converged to 2.041D-10 2.041D-09 after     8 iterations.
 Angle between quadratic step and gradient=  86.89 degrees.
     ILin= 1 X=0.000D+00 Y=-1.382662755092D+03 DE= 0.00D+00 F= -5.82D-10
     ILin= 2 X=1.000D+00 Y=-1.382662755093D+03 DE=-1.44D-10
 Iteration  28 EE= -1382.66275509254     Delta-E=       -0.000000000144 Grad=1.977D-05 Max rot=    0.0005 deg.
 QCNR:  CnvC1=1.98D-10 CnvC2=1.98D-09
 LinEq1:  Iter=  0 NonCon=     1 RMS=3.07D-07 Max=2.31D-06 NDo=     1
 LinEq1:  Iter=  1 NonCon=     1 RMS=1.28D-07 Max=1.61D-06 NDo=     1
 LinEq1:  Iter=  2 NonCon=     1 RMS=4.40D-08 Max=5.77D-07 NDo=     1
 LinEq1:  Iter=  3 NonCon=     1 RMS=2.08D-08 Max=2.76D-07 NDo=     1
 LinEq1:  Iter=  4 NonCon=     1 RMS=2.00D-08 Max=2.05D-07 NDo=     1
 LinEq1:  Iter=  5 NonCon=     1 RMS=8.65D-09 Max=1.06D-07 NDo=     1
 LinEq1:  Iter=  6 NonCon=     1 RMS=2.48D-09 Max=2.84D-08 NDo=     1
 LinEq1:  Iter=  7 NonCon=     1 RMS=6.37D-10 Max=9.26D-09 NDo=     1
 LinEq1:  Iter=  8 NonCon=     0 RMS=1.92D-10 Max=1.84D-09 NDo=     1
 Linear equations converged to 1.977D-10 1.977D-09 after     8 iterations.
 Angle between quadratic step and gradient=  81.85 degrees.
     ILin= 1 X=0.000D+00 Y=-1.382662755093D+03 DE= 0.00D+00 F= -5.69D-10
     ILin= 2 X=1.000D+00 Y=-1.382662755093D+03 DE=-1.98D-10
 Iteration  29 EE= -1382.66275509274     Delta-E=       -0.000000000198 Grad=1.542D-05 Max rot=    0.0003 deg.
 QCNR:  CnvC1=1.54D-10 CnvC2=1.54D-09
 LinEq1:  Iter=  0 NonCon=     1 RMS=1.92D-07 Max=1.89D-06 NDo=     1
 LinEq1:  Iter=  1 NonCon=     1 RMS=8.41D-08 Max=1.45D-06 NDo=     1
 LinEq1:  Iter=  2 NonCon=     1 RMS=6.85D-08 Max=7.97D-07 NDo=     1
 LinEq1:  Iter=  3 NonCon=     1 RMS=3.62D-08 Max=4.42D-07 NDo=     1
 LinEq1:  Iter=  4 NonCon=     1 RMS=1.16D-08 Max=1.43D-07 NDo=     1
 LinEq1:  Iter=  5 NonCon=     1 RMS=4.56D-09 Max=8.34D-08 NDo=     1
 LinEq1:  Iter=  6 NonCon=     1 RMS=8.20D-10 Max=1.09D-08 NDo=     1
 LinEq1:  Iter=  7 NonCon=     1 RMS=2.47D-10 Max=3.39D-09 NDo=     1
 LinEq1:  Iter=  8 NonCon=     0 RMS=7.12D-11 Max=5.86D-10 NDo=     1
 Linear equations converged to 1.542D-10 1.542D-09 after     8 iterations.
 Angle between quadratic step and gradient=  86.74 degrees.
     ILin= 1 X=0.000D+00 Y=-1.382662755093D+03 DE= 0.00D+00 F= -5.68D-10
     ILin= 2 X=1.000D+00 Y=-1.382662755093D+03 DE=-5.16D-11
 Iteration  30 EE= -1382.66275509279     Delta-E=       -0.000000000052 Grad=2.639D-05 Max rot=    0.0007 deg.
 QCNR:  CnvC1=2.64D-10 CnvC2=2.64D-09
 LinEq1:  Iter=  0 NonCon=     1 RMS=4.03D-07 Max=3.40D-06 NDo=     1
 LinEq1:  Iter=  1 NonCon=     1 RMS=1.78D-07 Max=2.47D-06 NDo=     1
 LinEq1:  Iter=  2 NonCon=     1 RMS=1.69D-07 Max=1.80D-06 NDo=     1
 LinEq1:  Iter=  3 NonCon=     1 RMS=1.24D-07 Max=1.99D-06 NDo=     1
 LinEq1:  Iter=  4 NonCon=     1 RMS=2.14D-08 Max=2.63D-07 NDo=     1
 LinEq1:  Iter=  5 NonCon=     1 RMS=8.26D-09 Max=9.91D-08 NDo=     1
 LinEq1:  Iter=  6 NonCon=     1 RMS=2.65D-09 Max=3.56D-08 NDo=     1
 LinEq1:  Iter=  7 NonCon=     1 RMS=6.86D-10 Max=1.02D-08 NDo=     1
 LinEq1:  Iter=  8 NonCon=     0 RMS=2.50D-10 Max=2.56D-09 NDo=     1
 Linear equations converged to 2.639D-10 2.639D-09 after     8 iterations.
 Angle between quadratic step and gradient=  80.96 degrees.
     ILin= 1 X=0.000D+00 Y=-1.382662755093D+03 DE= 0.00D+00 F= -7.44D-10
     ILin= 2 X=1.000D+00 Y=-1.382662755093D+03 DE=-3.19D-10
 Iteration  31 EE= -1382.66275509311     Delta-E=       -0.000000000319 Grad=8.984D-06 Max rot=    0.0002 deg.
 QCNR:  CnvC1=8.98D-11 CnvC2=8.98D-10
 LinEq1:  Iter=  0 NonCon=     1 RMS=1.31D-07 Max=1.26D-06 NDo=     1
 LinEq1:  Iter=  1 NonCon=     1 RMS=8.62D-08 Max=1.59D-06 NDo=     1
 LinEq1:  Iter=  2 NonCon=     1 RMS=9.61D-08 Max=1.26D-06 NDo=     1
 LinEq1:  Iter=  3 NonCon=     1 RMS=2.98D-08 Max=4.09D-07 NDo=     1
 LinEq1:  Iter=  4 NonCon=     1 RMS=1.04D-08 Max=1.24D-07 NDo=     1
 LinEq1:  Iter=  5 NonCon=     1 RMS=3.68D-09 Max=5.96D-08 NDo=     1
 LinEq1:  Iter=  6 NonCon=     1 RMS=5.87D-10 Max=7.74D-09 NDo=     1
 LinEq1:  Iter=  7 NonCon=     1 RMS=1.87D-10 Max=2.31D-09 NDo=     1
 LinEq1:  Iter=  8 NonCon=     0 RMS=4.31D-11 Max=3.42D-10 NDo=     1
 Linear equations converged to 8.984D-11 8.984D-10 after     8 iterations.
 Angle between quadratic step and gradient=  86.13 degrees.
     ILin= 1 X=0.000D+00 Y=-1.382662755093D+03 DE= 0.00D+00 F= -5.54D-10
     ILin= 2 X=1.000D+00 Y=-1.382662755093D+03 DE=-3.25D-11
 Iteration  32 EE= -1382.66275509315     Delta-E=       -0.000000000033 Grad=3.082D-05 Max rot=    0.0006 deg.
 QCNR:  CnvC1=3.08D-10 CnvC2=3.08D-09
 LinEq1:  Iter=  0 NonCon=     1 RMS=4.90D-07 Max=4.05D-06 NDo=     1
 LinEq1:  Iter=  1 NonCon=     1 RMS=3.76D-07 Max=6.39D-06 NDo=     1
 LinEq1:  Iter=  2 NonCon=     1 RMS=3.60D-07 Max=4.29D-06 NDo=     1
 LinEq1:  Iter=  3 NonCon=     1 RMS=1.42D-07 Max=1.95D-06 NDo=     1
 LinEq1:  Iter=  4 NonCon=     1 RMS=2.44D-08 Max=2.86D-07 NDo=     1
 LinEq1:  Iter=  5 NonCon=     1 RMS=9.80D-09 Max=1.14D-07 NDo=     1
 LinEq1:  Iter=  6 NonCon=     1 RMS=2.92D-09 Max=3.78D-08 NDo=     1
 LinEq1:  Iter=  7 NonCon=     1 RMS=6.82D-10 Max=1.02D-08 NDo=     1
 LinEq1:  Iter=  8 NonCon=     0 RMS=2.63D-10 Max=2.80D-09 NDo=     1
 Linear equations converged to 3.082D-10 3.082D-09 after     8 iterations.
 Angle between quadratic step and gradient=  80.59 degrees.
     ILin= 1 X=0.000D+00 Y=-1.382662755093D+03 DE= 0.00D+00 F= -8.67D-10
     ILin= 2 X=1.000D+00 Y=-1.382662755094D+03 DE=-4.03D-10
 Iteration  33 EE= -1382.66275509355     Delta-E=       -0.000000000403 Grad=5.131D-06 Max rot=    0.0001 deg.
 QCNR:  CnvC1=5.13D-11 CnvC2=5.13D-10
 LinEq1:  Iter=  0 NonCon=     1 RMS=9.22D-08 Max=1.17D-06 NDo=     1
 LinEq1:  Iter=  1 NonCon=     1 RMS=6.55D-08 Max=1.19D-06 NDo=     1
 LinEq1:  Iter=  2 NonCon=     1 RMS=6.64D-08 Max=9.49D-07 NDo=     1
 LinEq1:  Iter=  3 NonCon=     1 RMS=2.10D-08 Max=3.43D-07 NDo=     1
 LinEq1:  Iter=  4 NonCon=     1 RMS=8.21D-09 Max=1.10D-07 NDo=     1
 LinEq1:  Iter=  5 NonCon=     1 RMS=2.61D-09 Max=4.09D-08 NDo=     1
 LinEq1:  Iter=  6 NonCon=     1 RMS=4.49D-10 Max=5.64D-09 NDo=     1
 LinEq1:  Iter=  7 NonCon=     1 RMS=1.28D-10 Max=1.62D-09 NDo=     1
 LinEq1:  Iter=  8 NonCon=     0 RMS=2.56D-11 Max=2.35D-10 NDo=     1
 Linear equations converged to 5.131D-11 5.131D-10 after     8 iterations.
 Angle between quadratic step and gradient=  84.52 degrees.
     ILin= 1 X=0.000D+00 Y=-1.382662755094D+03 DE= 0.00D+00 F= -7.83D-10
     ILin= 2 X=1.000D+00 Y=-1.382662755093D+03 DE= 3.31D-10 F=  1.44D-09
 QCLLim returned failure.
     ILin= 3 X=2.000D+00 Y=-1.382662755091D+03 DE= 2.89D-09 F=  3.67D-09
 QCLLim is confused:  Bigger=T Turned=T
 NLin=  3 IMin12=  1  2 I12=  0  2 IX=  1 XLMin= 0.000D+00 XLMax= 0.000D+00
 X = 0.000D+00 1.000D+00 2.000D+00
 DE= 0.000D+00 3.306D-10 2.887D-09
     An  expanding polynomial of degree  3 produced  0.3516
 Iteration  34 EE= -1382.66275509369     Delta-E=       -0.000000000139 Grad=1.772D-05 Max rot=    0.0004 deg.
 QCNR:  CnvC1=1.77D-10 CnvC2=1.77D-09
 LinEq1:  Iter=  0 NonCon=     1 RMS=2.80D-07 Max=3.16D-06 NDo=     1
 LinEq1:  Iter=  1 NonCon=     1 RMS=1.21D-07 Max=2.02D-06 NDo=     1
 LinEq1:  Iter=  2 NonCon=     1 RMS=1.15D-07 Max=1.70D-06 NDo=     1
 LinEq1:  Iter=  3 NonCon=     1 RMS=7.94D-08 Max=1.31D-06 NDo=     1
 LinEq1:  Iter=  4 NonCon=     1 RMS=1.30D-08 Max=1.21D-07 NDo=     1
 LinEq1:  Iter=  5 NonCon=     1 RMS=4.95D-09 Max=5.68D-08 NDo=     1
 LinEq1:  Iter=  6 NonCon=     1 RMS=1.30D-09 Max=1.33D-08 NDo=     1
 LinEq1:  Iter=  7 NonCon=     1 RMS=2.30D-10 Max=2.24D-09 NDo=     1
 LinEq1:  Iter=  8 NonCon=     0 RMS=5.85D-11 Max=6.99D-10 NDo=     1
 Linear equations converged to 1.772D-10 1.772D-09 after     8 iterations.
 Angle between quadratic step and gradient=  88.34 degrees.
     ILin= 1 X=0.000D+00 Y=-1.382662755094D+03 DE= 0.00D+00 F= -1.22D-09
     ILin= 2 X=1.000D+00 Y=-1.382662755094D+03 DE=-5.62D-10
 Iteration  35 EE= -1382.66275509425     Delta-E=       -0.000000000562 Grad=1.193D-05 Max rot=    0.0002 deg.
 QCNR:  CnvC1=1.19D-10 CnvC2=1.19D-09
 LinEq1:  Iter=  0 NonCon=     1 RMS=3.23D-07 Max=3.41D-06 NDo=     1
 LinEq1:  Iter=  1 NonCon=     1 RMS=2.08D-07 Max=3.34D-06 NDo=     1
 LinEq1:  Iter=  2 NonCon=     1 RMS=2.37D-07 Max=2.61D-06 NDo=     1
 LinEq1:  Iter=  3 NonCon=     1 RMS=4.15D-08 Max=4.29D-07 NDo=     1
 LinEq1:  Iter=  4 NonCon=     1 RMS=1.22D-08 Max=1.75D-07 NDo=     1
 LinEq1:  Iter=  5 NonCon=     1 RMS=3.91D-09 Max=3.62D-08 NDo=     1
 LinEq1:  Iter=  6 NonCon=     1 RMS=7.09D-10 Max=1.03D-08 NDo=     1
 LinEq1:  Iter=  7 NonCon=     1 RMS=2.13D-10 Max=1.74D-09 NDo=     1
 LinEq1:  Iter=  8 NonCon=     0 RMS=5.61D-11 Max=9.07D-10 NDo=     1
 Linear equations converged to 1.193D-10 1.193D-09 after     8 iterations.
 Angle between quadratic step and gradient=  76.88 degrees.
     ILin= 1 X=0.000D+00 Y=-1.382662755094D+03 DE= 0.00D+00 F= -9.63D-10
     ILin= 2 X=1.000D+00 Y=-1.382662755095D+03 DE=-4.47D-10
 Iteration  36 EE= -1382.66275509470     Delta-E=       -0.000000000447 Grad=1.178D-05 Max rot=    0.0002 deg.
 QCNR:  CnvC1=1.18D-10 CnvC2=1.18D-09
 LinEq1:  Iter=  0 NonCon=     1 RMS=2.39D-07 Max=3.85D-06 NDo=     1
 LinEq1:  Iter=  1 NonCon=     1 RMS=1.94D-07 Max=4.30D-06 NDo=     1
 LinEq1:  Iter=  2 NonCon=     1 RMS=1.78D-07 Max=1.97D-06 NDo=     1
 LinEq1:  Iter=  3 NonCon=     1 RMS=6.01D-08 Max=6.40D-07 NDo=     1
 LinEq1:  Iter=  4 NonCon=     1 RMS=1.54D-08 Max=2.72D-07 NDo=     1
 LinEq1:  Iter=  5 NonCon=     1 RMS=6.85D-09 Max=1.30D-07 NDo=     1
 LinEq1:  Iter=  6 NonCon=     1 RMS=1.37D-09 Max=1.80D-08 NDo=     1
 LinEq1:  Iter=  7 NonCon=     1 RMS=1.74D-10 Max=1.79D-09 NDo=     1
 LinEq1:  Iter=  8 NonCon=     0 RMS=6.91D-11 Max=6.61D-10 NDo=     1
 Linear equations converged to 1.178D-10 1.178D-09 after     8 iterations.
 Angle between quadratic step and gradient=  87.40 degrees.
     ILin= 1 X=0.000D+00 Y=-1.382662755095D+03 DE= 0.00D+00 F= -3.66D-10
     ILin= 2 X=1.000D+00 Y=-1.382662755095D+03 DE=-9.37D-11
 Iteration  37 EE= -1382.66275509479     Delta-E=       -0.000000000094 Grad=1.856D-05 Max rot=    0.0003 deg.
 QCNR:  CnvC1=1.86D-10 CnvC2=1.86D-09
 LinEq1:  Iter=  0 NonCon=     1 RMS=2.54D-07 Max=2.29D-06 NDo=     1
 LinEq1:  Iter=  1 NonCon=     1 RMS=2.40D-07 Max=3.95D-06 NDo=     1
 LinEq1:  Iter=  2 NonCon=     1 RMS=3.06D-07 Max=3.64D-06 NDo=     1
 LinEq1:  Iter=  3 NonCon=     1 RMS=6.23D-08 Max=6.62D-07 NDo=     1
 LinEq1:  Iter=  4 NonCon=     1 RMS=1.47D-08 Max=1.60D-07 NDo=     1
 LinEq1:  Iter=  5 NonCon=     1 RMS=4.53D-09 Max=5.74D-08 NDo=     1
 LinEq1:  Iter=  6 NonCon=     1 RMS=9.84D-10 Max=1.58D-08 NDo=     1
 LinEq1:  Iter=  7 NonCon=     1 RMS=3.57D-10 Max=4.96D-09 NDo=     1
 LinEq1:  Iter=  8 NonCon=     0 RMS=8.10D-11 Max=5.97D-10 NDo=     1
 Linear equations converged to 1.856D-10 1.856D-09 after     8 iterations.
 Angle between quadratic step and gradient=  83.79 degrees.
     ILin= 1 X=0.000D+00 Y=-1.382662755095D+03 DE= 0.00D+00 F= -4.53D-10
     ILin= 2 X=1.000D+00 Y=-1.382662755095D+03 DE=-2.17D-10
 Iteration  38 EE= -1382.66275509501     Delta-E=       -0.000000000217 Grad=6.614D-06 Max rot=    0.0001 deg.
 QCNR:  CnvC1=6.61D-11 CnvC2=6.61D-10
 LinEq1:  Iter=  0 NonCon=     1 RMS=1.46D-07 Max=1.08D-06 NDo=     1
 LinEq1:  Iter=  1 NonCon=     1 RMS=1.66D-07 Max=3.43D-06 NDo=     1
 LinEq1:  Iter=  2 NonCon=     1 RMS=1.32D-07 Max=1.81D-06 NDo=     1
 LinEq1:  Iter=  3 NonCon=     1 RMS=4.46D-08 Max=5.38D-07 NDo=     1
 LinEq1:  Iter=  4 NonCon=     1 RMS=1.11D-08 Max=1.64D-07 NDo=     1
 LinEq1:  Iter=  5 NonCon=     1 RMS=3.63D-09 Max=5.01D-08 NDo=     1
 LinEq1:  Iter=  6 NonCon=     1 RMS=6.82D-10 Max=7.21D-09 NDo=     1
 LinEq1:  Iter=  7 NonCon=     1 RMS=1.32D-10 Max=1.72D-09 NDo=     1
 LinEq1:  Iter=  8 NonCon=     0 RMS=4.61D-11 Max=4.41D-10 NDo=     1
 Linear equations converged to 6.614D-11 6.614D-10 after     8 iterations.
 Angle between quadratic step and gradient=  86.48 degrees.
     ILin= 1 X=0.000D+00 Y=-1.382662755095D+03 DE= 0.00D+00 F= -3.72D-10
     ILin= 2 X=1.000D+00 Y=-1.382662755095D+03 DE=-1.55D-11
 Iteration  39 EE= -1382.66275509502     Delta-E=       -0.000000000015 Grad=3.087D-05 Max rot=    0.0005 deg.
 QCNR:  CnvC1=3.09D-10 CnvC2=3.09D-09
 LinEq1:  Iter=  0 NonCon=     1 RMS=3.40D-07 Max=3.14D-06 NDo=     1
 LinEq1:  Iter=  1 NonCon=     1 RMS=4.25D-07 Max=7.21D-06 NDo=     1
 LinEq1:  Iter=  2 NonCon=     1 RMS=4.38D-07 Max=6.16D-06 NDo=     1
 LinEq1:  Iter=  3 NonCon=     1 RMS=1.02D-07 Max=9.22D-07 NDo=     1
 LinEq1:  Iter=  4 NonCon=     1 RMS=2.39D-08 Max=3.33D-07 NDo=     1
 LinEq1:  Iter=  5 NonCon=     1 RMS=8.11D-09 Max=1.41D-07 NDo=     1
 LinEq1:  Iter=  6 NonCon=     1 RMS=1.85D-09 Max=2.30D-08 NDo=     1
 LinEq1:  Iter=  7 NonCon=     1 RMS=6.10D-10 Max=7.86D-09 NDo=     1
 LinEq1:  Iter=  8 NonCon=     0 RMS=1.52D-10 Max=1.39D-09 NDo=     1
 Linear equations converged to 3.087D-10 3.087D-09 after     8 iterations.
 Angle between quadratic step and gradient=  82.62 degrees.
     ILin= 1 X=0.000D+00 Y=-1.382662755095D+03 DE= 0.00D+00 F= -6.24D-10
     ILin= 2 X=1.000D+00 Y=-1.382662755095D+03 DE=-3.14D-10
 Iteration  40 EE= -1382.66275509534     Delta-E=       -0.000000000314 Grad=3.908D-06 Max rot=    0.0001 deg.
 QCNR:  CnvC1=3.91D-11 CnvC2=3.91D-10
 LinEq1:  Iter=  0 NonCon=     1 RMS=8.86D-08 Max=8.32D-07 NDo=     1
 LinEq1:  Iter=  1 NonCon=     1 RMS=6.13D-08 Max=9.27D-07 NDo=     1
 LinEq1:  Iter=  2 NonCon=     1 RMS=8.03D-08 Max=1.40D-06 NDo=     1
 LinEq1:  Iter=  3 NonCon=     1 RMS=3.02D-08 Max=3.79D-07 NDo=     1
 LinEq1:  Iter=  4 NonCon=     1 RMS=6.78D-09 Max=1.35D-07 NDo=     1
 LinEq1:  Iter=  5 NonCon=     1 RMS=2.10D-09 Max=2.73D-08 NDo=     1
 LinEq1:  Iter=  6 NonCon=     1 RMS=4.28D-10 Max=5.72D-09 NDo=     1
 LinEq1:  Iter=  7 NonCon=     1 RMS=9.81D-11 Max=1.15D-09 NDo=     1
[...]
     ILin=14 X=4.096D+03 Y=-1.382662743043D+03 DE= 1.21D-05 F=  5.91D-09
     No minimum found in polynomial.
     ILin=15 X=8.192D+03 Y=-1.382662706480D+03 DE= 4.86D-05 F=  1.20D-08
     No minimum found in polynomial.
     ILin=16 X=1.638D+04 Y=-1.382662557464D+03 DE= 1.98D-04 F=  2.45D-08
     No minimum found in polynomial.
 The polynomial fit failed.  Using point  2.
     An  expanding polynomial of degree 16 produced  1.0000
 Search did not lower the energy significantly.
 No lower point found -- using Newton-Raphson step.
 Iteration 105 EE= -1382.66275509775     Delta-E=        0.000000000002 Grad=5.763D-06 Max rot=    0.0002 deg.
 QCNR:  CnvC1=5.76D-11 CnvC2=5.76D-10
 LinEq1:  Iter=  0 NonCon=     1 RMS=1.23D-08 Max=1.05D-07 NDo=     1
 LinEq1:  Iter=  1 NonCon=     1 RMS=1.71D-08 Max=3.44D-07 NDo=     1
 LinEq1:  Iter=  2 NonCon=     1 RMS=1.09D-08 Max=1.27D-07 NDo=     1
 LinEq1:  Iter=  3 NonCon=     1 RMS=3.17D-09 Max=2.86D-08 NDo=     1
 LinEq1:  Iter=  4 NonCon=     1 RMS=7.61D-10 Max=1.10D-08 NDo=     1
 LinEq1:  Iter=  5 NonCon=     1 RMS=3.06D-10 Max=5.02D-09 NDo=     1
 LinEq1:  Iter=  6 NonCon=     1 RMS=6.70D-11 Max=8.52D-10 NDo=     1
 LinEq1:  Iter=  7 NonCon=     0 RMS=1.43D-11 Max=1.38D-10 NDo=     1
 Linear equations converged to 5.763D-11 5.763D-10 after     7 iterations.
 Angle between quadratic step and gradient=  88.88 degrees.
     ILin= 1 X=0.000D+00 Y=-1.382662755098D+03 DE= 0.00D+00 F= -8.68D-13
     ILin= 2 X=1.000D+00 Y=-1.382662755098D+03 DE= 4.55D-13 F= -1.41D-14
     ILin= 3 X=2.000D+00 Y=-1.382662755098D+03 DE= 4.55D-13 F=  8.40D-13
     No minimum found in polynomial.
     ILin= 4 X=4.000D+00 Y=-1.382662755098D+03 DE= 3.87D-12 F=  2.55D-12
     No minimum found in polynomial.
     ILin= 5 X=8.000D+00 Y=-1.382662755098D+03 DE= 1.84D-11 F=  5.96D-12
     No minimum found in polynomial.
     ILin= 6 X=1.600D+01 Y=-1.382662755098D+03 DE= 9.19D-11 F=  1.28D-11
 QCLLim is confused:  Bigger=T Turned=T
 NLin=  6 IMin12=  1  2 I12=  0  2 IX=  1 XLMin= 0.000D+00 XLMax= 0.000D+00
 X = 0.000D+00 1.000D+00 2.000D+00 4.000D+00 8.000D+00 1.600D+01
 DE= 0.000D+00 4.547D-13 4.547D-13 3.865D-12 1.842D-11 9.186D-11
     Reject polynomial minimum 8.414D-01 FVal=-1.382662755098D+03 Lims=  0.00D+00  1.00D+00
     ILin= 7 X=3.200D+01 Y=-1.382662755097D+03 DE= 4.02D-10 F=  2.65D-11
     No minimum found in polynomial.
     ILin= 8 X=6.400D+01 Y=-1.382662755096D+03 DE= 1.68D-09 F=  5.38D-11
     No minimum found in polynomial.
     ILin= 9 X=1.280D+02 Y=-1.382662755091D+03 DE= 6.86D-09 F=  1.08D-10
     No minimum found in polynomial.
     ILin=10 X=2.560D+02 Y=-1.382662755070D+03 DE= 2.77D-08 F=  2.18D-10
 QCLLim is confused:  Bigger=T Turned=T
 NLin= 10 IMin12=  1  2 I12=  0  2 IX=  1 XLMin= 0.000D+00 XLMax= 0.000D+00
 X = 0.000D+00 1.000D+00 2.000D+00 4.000D+00 8.000D+00 1.600D+01 3.200D+01 6.400D+01 1.280D+02 2.560D+02
 DE= 0.000D+00 4.547D-13 4.547D-13 3.865D-12 1.842D-11 9.186D-11 4.018D-10 1.680D-09 6.855D-09 2.770D-08
     Reject polynomial minimum 1.078D+01 FVal=-1.382662755098D+03 Lims=  0.00D+00  1.00D+00
     ILin=11 X=5.120D+02 Y=-1.382662754986D+03 DE= 1.11D-07 F=  4.36D-10
     No minimum found in polynomial.
     ILin=12 X=1.024D+03 Y=-1.382662754651D+03 DE= 4.46D-07 F=  8.73D-10
 QCLLim is confused:  Bigger=T Turned=T
 NLin= 12 IMin12=  1  2 I12=  0  2 IX=  1 XLMin= 0.000D+00 XLMax= 0.000D+00
 X = 0.000D+00 1.000D+00 2.000D+00 4.000D+00 8.000D+00 1.600D+01 3.200D+01 6.400D+01 1.280D+02 2.560D+02 5.120D+02 1.024D+03
 DE= 0.000D+00 4.547D-13 4.547D-13 3.865D-12 1.842D-11 9.186D-11 4.018D-10 1.680D-09 6.855D-09 2.770D-08 1.113D-07 4.464D-07
     Reject polynomial minimum 1.292D+01 FVal=-1.382662755098D+03 Lims=  0.00D+00  1.00D+00
     ILin=13 X=2.048D+03 Y=-1.382662753310D+03 DE= 1.79D-06 F=  1.75D-09
     No minimum found in polynomial.
     ILin=14 X=4.096D+03 Y=-1.382662747947D+03 DE= 7.15D-06 F=  3.49D-09
     No minimum found in polynomial.
     ILin=15 X=8.192D+03 Y=-1.382662726511D+03 DE= 2.86D-05 F=  6.97D-09
     No minimum found in polynomial.
     ILin=16 X=1.638D+04 Y=-1.382662640916D+03 DE= 1.14D-04 F=  1.39D-08
     No minimum found in polynomial.
 The polynomial fit failed.  Using point  2.
     An  expanding polynomial of degree 16 produced  1.0000
 Search did not lower the energy significantly.
 No lower point found -- using Newton-Raphson step.
 Iteration 106 EE= -1382.66275509775     Delta-E=        0.000000000000 Grad=1.617D-07 Max rot=    0.0000 deg.
 Rotation gradient small -- convergence achieved.
 Density matrix breaks symmetry, PCut= 1.00D-04
 Density matrix has no symmetry -- integrals replicated.
 Density matrix is not symmetric, so final MOs not symmetrized.
 SCF Done:  E(UM062X) =  -1382.66275510     a.u. after  106 cycles
            Convg  =    0.1617D-06                  1137 Fock formations.
              S**2 =  3.7673                  -V/T =  2.0014
 <Sx>= 0.0000 <Sy>= 0.0000 <Sz>= 1.5000 <S**2>= 3.7673 S= 1.5043
 <L.S>= 0.000000000000E+00
 Annihilation of the first spin contaminant:
 S**2 before annihilation     3.7673,   after     3.7501
 Leave Link  508 at Sun Apr 18 07:56:27 2021, MaxMem=   104857600 cpu:            4059.5 elap:              87.7
 (Enter /s/ls4/users/knvvv/bin/g16sse/l801.exe)
 DoSCS=F DFT=T ScalE2(SS,OS)=  1.000000  1.000000
 Range of M.O.s used for correlation:     1    45
 NBasis=    45 NAE=    15 NBE=    12 NFC=     0 NFV=     0
 NROrb=     45 NOA=    15 NOB=    12 NVA=    30 NVB=    33
 Leave Link  801 at Sun Apr 18 07:56:27 2021, MaxMem=   104857600 cpu:               4.6 elap:               0.1
 (Enter /s/ls4/users/knvvv/bin/g16sse/l914.exe)
 UHF ground state
 Doing stability rather than CIS.
 Keep R1 and R2 ints in memory in symmetry-blocked form, NReq=59360624.
 FoFCou: FMM=F IPFlag=           0 FMFlag=           0 FMFlg1=           0
         NFxFlg=           0 DoJE=F BraDBF=F KetDBF=F FulRan=T
         wScrn=  0.000000 ICntrl=       600 IOpCl=  0 I1Cent=           0 NGrid=           0
         NMat0=    1 NMatS0=   1035 NMatT0=    0 NMatD0=    1 NMtDS0=    0 NMtDT0=    0
 Petite list used in FoFCou.
 MDV=   104857600 DFT=T DoStab=T Mixed=T DoRPA=F DoScal=F NonHer=F
 Making orbital integer symmetry assigments:
 Orbital symmetries:
 Alpha Orbitals:
       Occupied  (A1G) (A1G) (T1U) (T1U) (T1U) (A1G) (T1U) (T1U)
                 (T1U) (?A) (?A) (?A) (?A) (?A) (?A)
       Virtual   (T1U) (T1U) (T1U) (?A) (?A) (?A) (?A) (?A) (?A)
                 (?B) (?B) (?B) (?B) (?B) (T1U) (T1U) (T1U) (?C)
                 (?C) (?C) (?C) (?C) (?C) (?D) (?D) (?D) (?D) (?D)
                 (?D) (?D)
 Beta  Orbitals:
       Occupied  (A1G) (A1G) (T1U) (T1U) (T1U) (A1G) (T1U) (T1U)
                 (T1U) (?A) (?A) (?A)
       Virtual   (?A) (?A) (?A) (?B) (?B) (?B) (?A) (?A) (?A) (?A)
                 (?A) (?A) (?A) (?A) (?A) (?A) (?A) (?B) (?B) (?B)
                 (A1G) (?C) (?C) (?C) (?C) (?C) (?D) (?D) (?D)
                 (?D) (?D) (?D) (?D)
    24 initial guesses have been made.
 Convergence on wavefunction:    0.001000000000000
 Davidson Disk Diagonalization:  ConvIn= 1.00D-03 SkipCon=T Conv= 1.00D-03.
 Max sub-space:  1692 roots to seek:    24 dimension of matrix:          846
 Iteration     1 Dimension    24 NMult     0 NNew     24
 CISAX will form    24 AO SS matrices at one time.
 NMat=    24 NSing=    24 JSym2X= 2.
 Excitation Energies [eV] at current iteration:
 Root      1 :     1.485432154297459
 Root      2 :     1.685164177409458
 Root      3 :     1.685214579175647
 Root      4 :     3.835861123333138
 Root      5 :     4.319629826616628
 Root      6 :     4.319694302475725
 Root      7 :     5.156404266958077
 Root      8 :     5.156416133775801
 Root      9 :     5.827105535809610
 Root     10 :     5.873496624833550
 Root     11 :     5.873556511530989
 Root     12 :     5.884152606431349
 Root     13 :     5.904948566370055
 Root     14 :     6.737864904420535
 Root     15 :     6.737895870252031
 Root     16 :     6.896983304316624
 Root     17 :     7.278059419618124
 Root     18 :     7.514142972170498
 Root     19 :     7.514183713395012
 Root     20 :     8.189145546959585
 Root     21 :     8.482206041797847
 Root     22 :    10.039062599479810
 Root     23 :    10.039068537879510
 Root     24 :    11.190268752774160
 Iteration     2 Dimension    48 NMult    24 NNew     24
 CISAX will form    24 AO SS matrices at one time.
 NMat=    24 NSing=    24 JSym2X= 2.
 New state      1 was old state      4
 Root      1 not converged, maximum delta is    0.356518212768383
 Excitation Energies [eV] at current iteration:
 Root      1 :     0.092417305853895   Change is   -3.743443817479243
 Root      2 :     0.174382285495918   Change is   -4.145247541120710
 Root      3 :     0.174394851112369   Change is   -4.145299451363355
 Root      4 :     0.755016298880746   Change is   -0.730415855416713
 Root      5 :     0.805295788769429   Change is   -0.879868388640030
 Root      6 :     0.805318380617641   Change is   -0.879896198558006
 Root      7 :     1.367656514079126   Change is   -4.537292052290930
 Root      8 :     1.395760377877897   Change is   -4.477796133653092
 Root      9 :     1.395767905402963   Change is   -4.477728719430586
 Root     10 :     4.993682223454342   Change is   -0.162722043503735
 Root     11 :     4.993695348966748   Change is   -0.162720784809053
 Root     12 :     5.620066533923453   Change is   -0.207039001886157
 Root     13 :     5.757189053551150   Change is   -0.126963552880200
 Root     14 :     6.122459343081467   Change is   -0.774523961235157
 Root     15 :     6.457621985141695   Change is   -0.280242919278840
 Root     16 :     6.457637113807561   Change is   -0.280258756444471
 Root     17 :     6.854100752069217   Change is   -0.423958667548907
 Root     18 :     7.084256311036699   Change is   -2.954812226842810
 Root     19 :     7.084257595534248   Change is   -2.954805003945563
 Root     20 :     7.298664348988679   Change is   -1.183541692809168
 Root     21 :     7.347956800825125   Change is   -0.166186171345373
 Root     22 :     7.347979499397412   Change is   -0.166204213997599
 Root     23 :     7.922764396729574   Change is   -0.266381150230011
 Root     24 :     8.848061391971546
 Iteration     3 Dimension    51 NMult    48 NNew      3
 CISAX will form     3 AO SS matrices at one time.
 NMat=     3 NSing=     3 JSym2X= 2.
 Root      1 not converged, maximum delta is    0.026889085205318
 Excitation Energies [eV] at current iteration:
 Root      1 :     0.001861072972186   Change is   -0.090556232881710
 Root      2 :     0.004140473157860   Change is   -0.170241812338058
 Root      3 :     0.004150016710926   Change is   -0.170244834401443
 Iteration     4 Dimension    54 NMult    51 NNew      3
 CISAX will form     3 AO SS matrices at one time.
 NMat=     3 NSing=     3 JSym2X= 2.
 New state      1 was old state      2
 Root      1 not converged, maximum delta is    0.008685759550741
 Excitation Energies [eV] at current iteration:
 Root      1 :     0.001064493527676   Change is   -0.003075979630184
 Root      2 :     0.001073895690015   Change is   -0.003076121020911
 Root      3 :     0.001159585774445   Change is   -0.000701487197741
 Iteration     5 Dimension    57 NMult    54 NNew      3
 CISAX will form     3 AO SS matrices at one time.
 NMat=     3 NSing=     3 JSym2X= 2.
 Root      1 has converged.
 Excitation Energies [eV] at current iteration:
 Root      1 :     0.001001869082460   Change is   -0.000062624445217
 Root      2 :     0.001011268603918   Change is   -0.000062627086098
 Root      3 :     0.001153814311883   Change is   -0.000005771462562
 Convergence achieved on expansion vectors.
 ***********************************************************************
 Stability analysis using <AA,BB:AA,BB> singles matrix:
 ***********************************************************************
 1PDM for each excited state written to RWF  633
 Ground to excited state transition densities written to RWF  633

 Eigenvectors of the stability matrix:
 
 Excited state symmetry could not be determined.
 Eigenvector   1:  4.008-?Sym  Eigenvalue= 0.0000368  <S**2>=3.766
     10B -> 13B       -0.18619
     10B -> 14B        0.14008
     10B -> 15B        0.37263
     10B -> 21B        0.26068
     10B -> 24B       -0.22817
     11B -> 14B        0.37467
     11B -> 15B       -0.13970
     11B -> 22B        0.26173
     11B -> 23B       -0.22946
     12B -> 14B        0.45088
     12B -> 22B        0.27168
     12B -> 23B       -0.29324
 The wavefunction is stable under the perturbations considered.
 Leave Link  914 at Sun Apr 18 07:56:35 2021, MaxMem=   104857600 cpu:             376.5 elap:               8.0
 (Enter /s/ls4/users/knvvv/bin/g16sse/l508.exe)
 The wavefunction is already stable.
 Leave Link  508 at Sun Apr 18 07:56:35 2021, MaxMem=   104857600 cpu:               2.2 elap:               0.1
 (Enter /s/ls4/users/knvvv/bin/g16sse/l601.exe)
 Copying SCF densities to generalized density rwf, IOpCl= 1 IROHF=0.
 SCF density gives NOpUse=  1 NOpAll= 48.
 Marking SCF density as not fully symmetric.

 **********************************************************************

            Population analysis using the SCF density.

 **********************************************************************

 Orbital symmetries:
 Alpha Orbitals:
       Occupied  (A1G) (A1G) (T1U) (T1U) (T1U) (A1G) (T1U) (T1U)
                 (T1U) (?A) (?A) (?A) (?A) (?A) (?A)
       Virtual   (T1U) (T1U) (T1U) (?A) (?A) (?A) (?A) (?A) (?A)
                 (?B) (?B) (?B) (?B) (?B) (T1U) (T1U) (T1U) (?C)
                 (?C) (?C) (?C) (?C) (?C) (?D) (?D) (?D) (?D) (?D)
                 (?D) (?D)
 Beta  Orbitals:
       Occupied  (A1G) (A1G) (T1U) (T1U) (T1U) (A1G) (T1U) (T1U)
                 (T1U) (?A) (?A) (?A)
       Virtual   (?A) (?A) (?A) (?B) (?B) (?B) (?A) (?A) (?A) (?A)
                 (?A) (?A) (?A) (?A) (?A) (?A) (?A) (?B) (?B) (?B)
                 (A1G) (?C) (?C) (?C) (?C) (?C) (?D) (?D) (?D)
                 (?D) (?D) (?D) (?D)
 Unable to determine electronic state:  an orbital has unidentified symmetry.
 Alpha  occ. eigenvalues -- -279.36939 -33.38929 -29.03222 -29.03222 -29.01702
 Alpha  occ. eigenvalues --   -3.92558  -2.60344  -2.60344  -2.57494  -0.39280
 Alpha  occ. eigenvalues --   -0.39280  -0.36175  -0.36175  -0.35610  -0.20572
 Alpha virt. eigenvalues --    0.09846   0.10463   0.10463   0.18447   0.23490
 Alpha virt. eigenvalues --    0.23490   0.23827   0.23827   0.23943   1.02069
 Alpha virt. eigenvalues --    1.02069   1.03392   1.03433   1.03433   1.90648
 Alpha virt. eigenvalues --    1.90648   1.91656   2.88084   3.88786   3.88786
 Alpha virt. eigenvalues --    3.91053   3.91053   3.91489   4.94938   4.95847
 Alpha virt. eigenvalues --    4.96182   4.96182   4.97770   4.97770   4.98932
  Beta  occ. eigenvalues -- -279.36806 -33.32925 -28.97871 -28.97871 -28.97465
  Beta  occ. eigenvalues --   -3.82409  -2.46476  -2.46097  -2.46097  -0.28888
  Beta  occ. eigenvalues --   -0.28888  -0.25337
  Beta virt. eigenvalues --   -0.12825   0.03279   0.03279   0.04262   0.09262
  Beta virt. eigenvalues --    0.09262   0.13285   0.14297   0.16607   0.16607
  Beta virt. eigenvalues --    0.20620   0.20620   1.00054   1.00054   1.03582
  Beta virt. eigenvalues --    1.04559   1.04559   1.95317   1.95988   1.95988
  Beta virt. eigenvalues --    2.95298   3.95359   3.95359   3.98188   4.03647
  Beta virt. eigenvalues --    4.03647   5.03716   5.05041   5.05041   5.05239
  Beta virt. eigenvalues --    5.07342   5.07342   5.08023
          Condensed to atoms (all electrons):
               1
     1  Co  27.000000
          Atomic-Atomic Spin Densities.
               1
     1  Co   3.000000
 Mulliken charges and spin densities:
               1          2
     1  Co   0.000000   3.000000
 Sum of Mulliken charges =   0.00000   3.00000
 Mulliken charges and spin densities with hydrogens summed into heavy atoms:
               1          2
     1  Co   0.000000   3.000000
 Electronic spatial extent (au):  <R**2>=             34.6346
 Charge=              0.0000 electrons
 Dipole moment (field-independent basis, Debye):
    X=             -0.0000    Y=             -0.0000    Z=             -0.0000  Tot=              0.0000
 Quadrupole moment (field-independent basis, Debye-Ang):
   XX=            -15.5283   YY=            -15.5281   ZZ=            -15.5283
   XY=              0.2509   XZ=             -0.2508   YZ=             -0.2509
 Traceless Quadrupole moment (field-independent basis, Debye-Ang):
   XX=             -0.0001   YY=              0.0002   ZZ=             -0.0001
   XY=              0.2509   XZ=             -0.2508   YZ=             -0.2509
 Octapole moment (field-independent basis, Debye-Ang**2):
  XXX=             -0.0000  YYY=             -0.0000  ZZZ=             -0.0000  XYY=              0.0000
  XXY=             -0.0000  XXZ=             -0.0000  XZZ=             -0.0000  YZZ=             -0.0000
  YYZ=             -0.0000  XYZ=             -0.0000
 Hexadecapole moment (field-independent basis, Debye-Ang**3):
 XXXX=            -28.9022 YYYY=            -28.9012 ZZZZ=            -28.9021 XXXY=              0.5029
 XXXZ=             -0.5025 YYYX=              0.5026 YYYZ=             -0.5026 ZZZX=             -0.5025
 ZZZY=             -0.5029 XXYY=             -9.9274 XXZZ=             -9.9276 YYZZ=             -9.9274
 XXYZ=             -0.2223 YYXZ=             -0.2222 ZZXY=              0.2223
 N-N= 0.000000000000D+00 E-N=-3.298541875842D+03  KE= 1.380757126196D+03
                          Isotropic Fermi Contact Couplings
        Atom                 a.u.       MegaHertz       Gauss      10(-4) cm-1
     1  Co(59)             2.50262     882.51708     314.90404     294.37601
 --------------------------------------------------------
       Center         ----  Spin Dipole Couplings  ----
                      3XX-RR        3YY-RR        3ZZ-RR
 --------------------------------------------------------
     1   Atom        0.000294     -0.000517      0.000223
 --------------------------------------------------------
                        XY            XZ            YZ
 --------------------------------------------------------
     1   Atom       -0.795056      0.794692      0.795094
 --------------------------------------------------------


 ---------------------------------------------------------------------------------
              Anisotropic Spin Dipole Couplings in Principal Axis System
 ---------------------------------------------------------------------------------

       Atom             a.u.   MegaHertz   Gauss  10(-4) cm-1        Axes

              Baa    -1.5899  -200.771   -71.640   -66.970  0.5772  0.5775 -0.5773
     1 Co(59) Bbb     0.7949   100.385    35.820    33.485 -0.4904  0.8104  0.3204
              Bcc     0.7950   100.386    35.820    33.485  0.6529  0.0981  0.7511
 

 ---------------------------------------------------------------------------------

 No NMR shielding tensors so no spin-rotation constants.
 Leave Link  601 at Sun Apr 18 07:56:39 2021, MaxMem=   104857600 cpu:             216.0 elap:               4.6
 (Enter /s/ls4/users/knvvv/bin/g16sse/l9999.exe)

 Test job not archived.
 1\1\GINC-N178\Stability\UM062X\def2TZVP\Co1(4)\KNVVV\18-Apr-2021\0\\#P
  M062X/Def2TZVP Integral=UltraFineGrid SCF=NoSymm Stable=(RExt, Opt) I
 Op(1/33=1)\\Database calculations.\\0,4\Co,0,0.,0.,0.\\Version=ES64L-G
 16RevA.03\State=4-A1G\HF=-1382.6627551\S2=3.767301\S2-1=0.\S2A=3.75011
 3\RMSD=5.558e-09\Dipole=0.,0.,0.\Quadrupole=-0.0000516,0.0001199,-0.00
 00684,-0.186524,0.1864306,-0.1865163\PG=OH [O(Co1)]\\@


 LOVE IS BLIND, THAT'S WHY ALL THE WORLD LOVES A LOUVER.
 Job cpu time:       0 days  3 hours  6 minutes 54.4 seconds.
 Elapsed time:       0 days  0 hours  4 minutes  0.2 seconds.
 File lengths (MBytes):  RWF=     36 Int=      0 D2E=      0 Chk=      2 Scr=      1
 Normal termination of Gaussian 16 at Sun Apr 18 07:56:40 2021.
