 Entering Gaussian System, Link 0=/s/ls4/users/knvvv/bin/g16sse/g16
 Input=data/database/M062X--def2-QZVP--WCPT18_ts2.gjf
 Output=data/database/M062X--def2-QZVP--WCPT18_ts2.log
 Initial command:
 /s/ls4/users/knvvv/bin/g16sse/l1.exe "/s/ls4/users/knvvv/bin/scratch/Gau-24324.inp" -scrdir="/s/ls4/users/knvvv/bin/scratch/"
 Entering Link 1 = /s/ls4/users/knvvv/bin/g16sse/l1.exe PID=     24325.
  
 Copyright (c) 1988,1990,1992,1993,1995,1998,2003,2009,2016,
            Gaussian, Inc.  All Rights Reserved.
  
 This is part of the Gaussian(R) 16 program.  It is based on
 the Gaussian(R) 09 system (copyright 2009, Gaussian, Inc.),
 the Gaussian(R) 03 system (copyright 2003, Gaussian, Inc.),
 the Gaussian(R) 98 system (copyright 1998, Gaussian, Inc.),
 the Gaussian(R) 94 system (copyright 1995, Gaussian, Inc.),
 the Gaussian 92(TM) system (copyright 1992, Gaussian, Inc.),
 the Gaussian 90(TM) system (copyright 1990, Gaussian, Inc.),
 the Gaussian 88(TM) system (copyright 1988, Gaussian, Inc.),
 the Gaussian 86(TM) system (copyright 1986, Carnegie Mellon
 University), and the Gaussian 82(TM) system (copyright 1983,
 Carnegie Mellon University). Gaussian is a federally registered
 trademark of Gaussian, Inc.
  
 This software contains proprietary and confidential information,
 including trade secrets, belonging to Gaussian, Inc.
  
 This software is provided under written license and may be
 used, copied, transmitted, or stored only in accord with that
 written license.
  
 The following legend is applicable only to US Government
 contracts under FAR:
  
                    RESTRICTED RIGHTS LEGEND
  
 Use, reproduction and disclosure by the US Government is
 subject to restrictions as set forth in subparagraphs (a)
 and (c) of the Commercial Computer Software - Restricted
 Rights clause in FAR 52.227-19.
  
 Gaussian, Inc.
 340 Quinnipiac St., Bldg. 40, Wallingford CT 06492
  
  
 ---------------------------------------------------------------
 Warning -- This program may not be used in any manner that
 competes with the business of Gaussian, Inc. or will provide
 assistance to any competitor of Gaussian, Inc.  The licensee
 of this program is prohibited from giving any competitor of
 Gaussian, Inc. access to this program.  By using this program,
 the user acknowledges that Gaussian, Inc. is engaged in the
 business of creating and licensing software in the field of
 computational chemistry and represents and warrants to the
 licensee that it is not a competitor of Gaussian, Inc. and that
 it will not use this program in any manner prohibited above.
 ---------------------------------------------------------------
  

 Cite this work as:
 Gaussian 16, Revision A.03,
 M. J. Frisch, G. W. Trucks, H. B. Schlegel, G. E. Scuseria, 
 M. A. Robb, J. R. Cheeseman, G. Scalmani, V. Barone, 
 G. A. Petersson, H. Nakatsuji, X. Li, M. Caricato, A. V. Marenich, 
 J. Bloino, B. G. Janesko, R. Gomperts, B. Mennucci, H. P. Hratchian, 
 J. V. Ortiz, A. F. Izmaylov, J. L. Sonnenberg, D. Williams-Young, 
 F. Ding, F. Lipparini, F. Egidi, J. Goings, B. Peng, A. Petrone, 
 T. Henderson, D. Ranasinghe, V. G. Zakrzewski, J. Gao, N. Rega, 
 G. Zheng, W. Liang, M. Hada, M. Ehara, K. Toyota, R. Fukuda, 
 J. Hasegawa, M. Ishida, T. Nakajima, Y. Honda, O. Kitao, H. Nakai, 
 T. Vreven, K. Throssell, J. A. Montgomery, Jr., J. E. Peralta, 
 F. Ogliaro, M. J. Bearpark, J. J. Heyd, E. N. Brothers, K. N. Kudin, 
 V. N. Staroverov, T. A. Keith, R. Kobayashi, J. Normand, 
 K. Raghavachari, A. P. Rendell, J. C. Burant, S. S. Iyengar, 
 J. Tomasi, M. Cossi, J. M. Millam, M. Klene, C. Adamo, R. Cammi, 
 J. W. Ochterski, R. L. Martin, K. Morokuma, O. Farkas, 
 J. B. Foresman, and D. J. Fox, Gaussian, Inc., Wallingford CT, 2016.
 
 ******************************************
 Gaussian 16:  ES64L-G16RevA.03 25-Dec-2016
                18-Apr-2021 
 ******************************************
 %RWF=temp12_81766,70GB
 %nprocshared=48
 Will use up to   48 processors via shared memory.
 Default route: MaxDisk=80GB
 ----------------------------------------------------------------------
 #P M062X/Def2QZVP Integral=UltraFineGrid SCF=NoSymm Stable=(RExt, Opt)
  IOp(1/33=1)
 ----------------------------------------------------------------------
 1/33=1,38=1,172=1/1;
 2/12=2,17=6,18=5,40=1/2;
 3/5=45,7=101,11=2,25=1,30=1,74=-55,75=-5/1,2,3;
 4/9=2/1;
 5/5=2,38=5/2;
 6/7=2,8=2,9=2,10=2,28=1/1;
 8/6=1,10=90,11=11/1;
 9/8=-3,42=1,46=1/14;
 5/5=2,8=3,17=40,38=5/8(-2);
 6/7=2,8=2,9=2,10=2,28=1/1;
 99/5=1,9=1/99;
 Leave Link    1 at Sun Apr 18 07:01:32 2021, MaxMem=           0 cpu:               8.4 elap:               0.2
 (Enter /s/ls4/users/knvvv/bin/g16sse/l101.exe)
 ONIOM data not found on unit 2.
 ----------------------
 Database calculations.
 ----------------------
 TstMul:  ICh=     0
 TstMul:  Mul=     1
 TstMul:  ICh=     0
 TstMul:  Mul=     1
 Symbolic Z-matrix:
 Charge =  0 Multiplicity = 1
 C                     0.        0.50956   0. 
 H                     0.03776   1.59548   0. 
 O                    -1.09959  -0.14777   0. 
 H                     1.96913  -0.08722   0. 
 H                    -0.13183  -1.06447   0. 
 N                     0.9888   -0.33128   0. 
 
 RdStrC is calling ZToCFu for IStruc=1 NZ=     6.
 PrtBox:  NBox=     1 Levels=  1 BoxLen=    8.00 SMaxX=        5.80
          Shift=            2.077916            2.011562            0.000000
 Box      1 Number                   0 centers from      1 to      6:
 After GenITR:
 ITRead=  0  0  0  0  0  0
 MicOpt= -1 -1 -1 -1 -1 -1
 ITRead=  0  0  0  0  0  0
 MicOpt= -1 -1 -1 -1 -1 -1
 NAtoms=      6 NQM=        6 NQMF=       0 NMMI=      0 NMMIF=      0
                NMic=       0 NMicF=      0.
                    Isotopes and Nuclear Properties:
 (Nuclear quadrupole moments (NQMom) in fm**2, nuclear magnetic moments (NMagM)
  in nuclear magnetons)

  Atom         1           2           3           4           5           6
 IAtWgt=          12           1          16           1           1          14
 AtmWgt=  12.0000000   1.0078250  15.9949146   1.0078250   1.0078250  14.0030740
 NucSpn=           0           1           0           1           1           2
 AtZEff=  -0.0000000  -0.0000000  -0.0000000  -0.0000000  -0.0000000  -0.0000000
 NQMom=    0.0000000   0.0000000   0.0000000   0.0000000   0.0000000   2.0440000
 NMagM=    0.0000000   2.7928460   0.0000000   2.7928460   2.7928460   0.4037610
 AtZNuc=   6.0000000   1.0000000   8.0000000   1.0000000   1.0000000   7.0000000
 No MM parameters found.
 Leave Link  101 at Sun Apr 18 07:01:32 2021, MaxMem=   104857600 cpu:               8.6 elap:               0.2
 (Enter /s/ls4/users/knvvv/bin/g16sse/l202.exe)
                          Input orientation:                          
 ---------------------------------------------------------------------
 Center     Atomic      Atomic             Coordinates (Angstroms)
 Number     Number       Type             X           Y           Z
 ---------------------------------------------------------------------
      1          6           0        0.000000    0.509558    0.000000
      2          1           0        0.037758    1.595479    0.000000
      3          8           0       -1.099586   -0.147769    0.000000
      4          1           0        1.969129   -0.087220    0.000000
      5          1           0       -0.131827   -1.064473    0.000000
      6          7           0        0.988804   -0.331283    0.000000
 ---------------------------------------------------------------------
                    Distance matrix (angstroms):
                    1          2          3          4          5
     1  C    0.000000
     2  H    1.086577   0.000000
     3  O    1.281081   2.081457   0.000000
     4  H    2.057575   2.561576   3.069312   0.000000
     5  H    1.579542   2.665352   1.333006   2.317119   0.000000
     6  N    1.297978   2.148697   2.096437   1.010249   1.339172
                    6
     6  N    0.000000
 Stoichiometry    CH3NO
 Framework group  CS[SG(CH3NO)]
 Deg. of freedom     9
 Full point group                 CS      NOp   2
 Largest Abelian subgroup         CS      NOp   2
 Largest concise Abelian subgroup C1      NOp   1
                         Standard orientation:                         
 ---------------------------------------------------------------------
 Center     Atomic      Atomic             Coordinates (Angstroms)
 Number     Number       Type             X           Y           Z
 ---------------------------------------------------------------------
      1          6           0        0.000000    0.509558    0.000000
      2          1           0        0.037758    1.595479    0.000000
      3          8           0       -1.099586   -0.147769    0.000000
      4          1           0        1.969129   -0.087220    0.000000
      5          1           0       -0.131827   -1.064473    0.000000
      6          7           0        0.988804   -0.331283    0.000000
 ---------------------------------------------------------------------
 Rotational constants (GHZ):          58.9393536          13.6517872          11.0843762
 Leave Link  202 at Sun Apr 18 07:01:32 2021, MaxMem=   104857600 cpu:               5.4 elap:               0.1
 (Enter /s/ls4/users/knvvv/bin/g16sse/l301.exe)
 Standard basis: def2QZVP (5D, 7F)
 Ernie: Thresh=  0.10000D-02 Tol=  0.10000D-05 Strict=F.
 There are   216 symmetry adapted cartesian basis functions of A'  symmetry.
 There are   105 symmetry adapted cartesian basis functions of A"  symmetry.
 There are   171 symmetry adapted basis functions of A'  symmetry.
 There are    90 symmetry adapted basis functions of A"  symmetry.
   261 basis functions,   390 primitive gaussians,   321 cartesian basis functions
    12 alpha electrons       12 beta electrons
       nuclear repulsion energy        72.9403684002 Hartrees.
 IExCor= 4336 DFT=T Ex+Corr=M062X ExCW=0 ScaHFX=  0.540000
 ScaDFX=  1.000000  1.000000  1.000000  1.000000 ScalE2=  1.000000  1.000000
 IRadAn=      5 IRanWt=     -1 IRanGd=            0 ICorTp=0 IEmpDi=  4
 NAtoms=    6 NActive=    6 NUniq=    6 SFac= 1.00D+00 NAtFMM=   60 NAOKFM=F Big=F
 Integral buffers will be    131072 words long.
 Raffenetti 2 integral format.
 Two-electron integral symmetry is turned on.
 Leave Link  301 at Sun Apr 18 07:01:32 2021, MaxMem=   104857600 cpu:               6.5 elap:               0.2
 (Enter /s/ls4/users/knvvv/bin/g16sse/l302.exe)
 NPDir=0 NMtPBC=     1 NCelOv=     1 NCel=       1 NClECP=     1 NCelD=      1
         NCelK=      1 NCelE2=     1 NClLst=     1 CellRange=     0.0.
 One-electron integrals computed using PRISM.
 One-electron integral symmetry used in STVInt
 PrsmSu:  requested number of processors reduced to:   4 ShMem   1 Linda.
 PrsmSu:  requested number of processors reduced to:  21 ShMem   1 Linda.
   2 Symmetry operations used in ECPInt.
 ECPInt:  NShTT=    3321 NPrTT=    8136 LenC2=    3308 LenP2D=    7242.
 LDataN:  DoStor=T MaxTD1= 8 Len=  415
 Number of processors reduced to  26 by ecpmxn.
 NBasis=   261 RedAO= T EigKep=  1.23D-04  NBF=   171    90
 NBsUse=   261 1.00D-06 EigRej= -1.00D+00 NBFU=   171    90
 Precomputing XC quadrature grid using
 IXCGrd= 4 IRadAn=           5 IRanWt=          -1 IRanGd=           0 AccXCQ= 0.00D+00.
 Generated NRdTot=       0 NPtTot=           0 NUsed=           0 NTot=          32
 NSgBfM=   321   321   321   321   321 MxSgAt=     6 MxSgA2=     6.
 Leave Link  302 at Sun Apr 18 07:01:41 2021, MaxMem=   104857600 cpu:             391.5 elap:               8.4
 (Enter /s/ls4/users/knvvv/bin/g16sse/l303.exe)
 DipDrv:  MaxL=1.
 Leave Link  303 at Sun Apr 18 07:01:42 2021, MaxMem=   104857600 cpu:              64.7 elap:               1.4
 (Enter /s/ls4/users/knvvv/bin/g16sse/l401.exe)
 SCF N**3 symmetry information disabled.
 ExpMin= 7.60D-02 ExpMax= 1.17D+05 ExpMxC= 1.13D+03 IAcc=3 IRadAn=         5 AccDes= 0.00D+00
 Harris functional with IExCor= 1009 and IRadAn=       5 diagonalized for initial guess.
 HarFok:  IExCor= 1009 AccDes= 0.00D+00 IRadAn=         5 IDoV= 1 UseB2=F ITyADJ=14
 ICtDFT=  3500011 ScaDFX=  1.000000  1.000000  1.000000  1.000000
 FoFCou: FMM=F IPFlag=           0 FMFlag=      100000 FMFlg1=           0
         NFxFlg=           0 DoJE=T BraDBF=F KetDBF=T FulRan=T
         wScrn=  0.000000 ICntrl=       500 IOpCl=  0 I1Cent=   200000004 NGrid=           0
         NMat0=    1 NMatS0=      1 NMatT0=    0 NMatD0=    1 NMtDS0=    0 NMtDT0=    0
 Petite list used in FoFCou.
 CoulSu:  requested number of processors reduced to:  20 ShMem   1 Linda.
 CoulSu:  requested number of processors reduced to:  21 ShMem   1 Linda.
 CoulSu:  requested number of processors reduced to:  21 ShMem   1 Linda.
 CoulSu:  requested number of processors reduced to:  21 ShMem   1 Linda.
 Harris En= -169.760390914399    
 JPrj=0 DoOrth=F DoCkMO=F.
 Initial guess orbital symmetries:
       Occupied  (A') (A') (A') (A') (A') (A') (A') (A') (A") (A')
                 (A') (A")
       Virtual   (A") (A') (A') (A') (A') (A') (A") (A') (A') (A')
                 (A") (A') (A') (A") (A') (A') (A') (A') (A") (A')
                 (A') (A") (A") (A') (A') (A') (A") (A") (A') (A')
                 (A') (A') (A") (A') (A') (A') (A") (A') (A') (A")
                 (A') (A") (A') (A') (A') (A") (A") (A') (A') (A')
                 (A") (A') (A') (A') (A') (A') (A") (A") (A') (A")
                 (A') (A') (A") (A') (A') (A") (A') (A') (A") (A")
                 (A") (A') (A') (A") (A") (A') (A') (A') (A") (A')
                 (A') (A") (A') (A") (A') (A") (A') (A') (A') (A')
                 (A") (A') (A') (A') (A") (A') (A') (A") (A') (A')
                 (A") (A") (A') (A") (A') (A') (A') (A") (A') (A")
                 (A') (A") (A') (A') (A") (A') (A') (A") (A') (A')
                 (A") (A') (A') (A") (A') (A') (A') (A") (A") (A')
                 (A') (A") (A') (A") (A') (A') (A") (A') (A') (A")
                 (A") (A') (A') (A") (A") (A') (A') (A") (A') (A')
                 (A') (A") (A") (A') (A') (A') (A") (A') (A") (A")
                 (A') (A") (A') (A') (A') (A") (A") (A') (A') (A")
                 (A") (A') (A') (A') (A') (A") (A") (A') (A') (A')
                 (A") (A') (A") (A') (A') (A") (A") (A') (A') (A")
                 (A') (A') (A") (A') (A") (A") (A') (A') (A") (A')
                 (A') (A") (A') (A") (A') (A') (A') (A') (A") (A')
                 (A") (A') (A") (A') (A") (A') (A") (A') (A") (A')
                 (A') (A') (A') (A") (A') (A') (A') (A") (A") (A')
                 (A") (A") (A') (A') (A') (A") (A') (A') (A') (A')
                 (A') (A') (A') (A') (A') (A') (A') (A') (A')
 The electronic state of the initial guess is 1-A'.
 Leave Link  401 at Sun Apr 18 07:01:43 2021, MaxMem=   104857600 cpu:              28.5 elap:               0.8
 (Enter /s/ls4/users/knvvv/bin/g16sse/l502.exe)
 Integral symmetry usage will be decided dynamically.
 Closed shell SCF:
 Using DIIS extrapolation, IDIIS=  1040.
 NGot=   104857600 LenX=   104632833 LenY=   104529351
 Requested convergence on RMS density matrix=1.00D-08 within 128 cycles.
 Requested convergence on MAX density matrix=1.00D-06.
 Requested convergence on             energy=1.00D-06.
 No special actions if energy rises.
 Fock matrices will be formed incrementally for  20 cycles.
 Integral accuracy reduced to 1.0D-05 until final iterations.

 Cycle   1  Pass 0  IDiag  1:
 FoFJK:  IHMeth= 1 ICntrl=       0 DoSepK=F KAlg= 0 I1Cent=           0 FoldK=F
 IRaf= 990000000 NMat=       1 IRICut=       1 DoRegI=T DoRafI=F ISym2E= 1 IDoP0=0 IntGTp=1.
 FoFCou: FMM=F IPFlag=           0 FMFlag=      100000 FMFlg1=           0
         NFxFlg=           0 DoJE=F BraDBF=F KetDBF=F FulRan=T
         wScrn=  0.000000 ICntrl=         0 IOpCl=  0 I1Cent=           0 NGrid=           0
         NMat0=    1 NMatS0=      1 NMatT0=    0 NMatD0=    1 NMtDS0=    0 NMtDT0=    0
 Petite list used in FoFCou.
 CoulSu:  requested number of processors reduced to:  21 ShMem   1 Linda.
 E= -169.742628496742    
 DIIS: error= 2.87D-02 at cycle   1 NSaved=   1.
 NSaved= 1 IEnMin= 1 EnMin= -169.742628496742     IErMin= 1 ErrMin= 2.87D-02
 ErrMax= 2.87D-02  0.00D+00 EMaxC= 1.00D-01 BMatC= 1.99D-01 BMatP= 1.99D-01
 IDIUse=3 WtCom= 7.13D-01 WtEn= 2.87D-01
 Coeff-Com:  0.100D+01
 Coeff-En:   0.100D+01
 Coeff:      0.100D+01
 Gap=     0.324 Goal=   None    Shift=    0.000
 GapD=    0.324 DampG=1.000 DampE=0.500 DampFc=0.5000 IDamp=-1.
 Damping current iteration by 5.00D-01
 RMSDP=1.57D-03 MaxDP=9.18D-02              OVMax= 1.39D-01

 Cycle   2  Pass 0  IDiag  1:
 RMSU=  7.84D-04    CP:  9.87D-01
 CoulSu:  requested number of processors reduced to:  21 ShMem   1 Linda.
 E= -169.783872083279     Delta-E=       -0.041243586538 Rises=F Damp=T
 DIIS: error= 1.56D-02 at cycle   2 NSaved=   2.
 NSaved= 2 IEnMin= 2 EnMin= -169.783872083279     IErMin= 2 ErrMin= 1.56D-02
 ErrMax= 1.56D-02  0.00D+00 EMaxC= 1.00D-01 BMatC= 2.69D-02 BMatP= 1.99D-01
 IDIUse=3 WtCom= 8.44D-01 WtEn= 1.56D-01
 Coeff-Com: -0.851D-01 0.109D+01
 Coeff-En:   0.604D-01 0.940D+00
 Coeff:     -0.624D-01 0.106D+01
 Gap=     0.393 Goal=   None    Shift=    0.000
 RMSDP=5.69D-04 MaxDP=2.57D-02 DE=-4.12D-02 OVMax= 9.23D-02

 Cycle   3  Pass 0  IDiag  1:
 RMSU=  5.09D-04    CP:  9.77D-01  6.84D-01
 CoulSu:  requested number of processors reduced to:  21 ShMem   1 Linda.
 E= -169.827316466662     Delta-E=       -0.043444383383 Rises=F Damp=F
 DIIS: error= 5.50D-03 at cycle   3 NSaved=   3.
 NSaved= 3 IEnMin= 3 EnMin= -169.827316466662     IErMin= 3 ErrMin= 5.50D-03
 ErrMax= 5.50D-03  0.00D+00 EMaxC= 1.00D-01 BMatC= 8.71D-03 BMatP= 2.69D-02
 IDIUse=3 WtCom= 9.45D-01 WtEn= 5.50D-02
 Coeff-Com: -0.142D+00 0.407D+00 0.735D+00
 Coeff-En:   0.000D+00 0.000D+00 0.100D+01
 Coeff:     -0.134D+00 0.384D+00 0.750D+00
 Gap=     0.370 Goal=   None    Shift=    0.000
 RMSDP=2.00D-04 MaxDP=8.36D-03 DE=-4.34D-02 OVMax= 3.36D-02

 Cycle   4  Pass 0  IDiag  1:
 RMSU=  1.72D-04    CP:  9.76D-01  8.04D-01  9.20D-01
 CoulSu:  requested number of processors reduced to:  21 ShMem   1 Linda.
 E= -169.830825355653     Delta-E=       -0.003508888991 Rises=F Damp=F
 DIIS: error= 5.30D-03 at cycle   4 NSaved=   4.
 NSaved= 4 IEnMin= 4 EnMin= -169.830825355653     IErMin= 4 ErrMin= 5.30D-03
 ErrMax= 5.30D-03  0.00D+00 EMaxC= 1.00D-01 BMatC= 3.04D-03 BMatP= 8.71D-03
 IDIUse=3 WtCom= 9.47D-01 WtEn= 5.30D-02
 Coeff-Com: -0.735D-01 0.159D+00 0.454D+00 0.461D+00
 Coeff-En:   0.000D+00 0.000D+00 0.282D+00 0.718D+00
 Coeff:     -0.696D-01 0.151D+00 0.444D+00 0.474D+00
 Gap=     0.368 Goal=   None    Shift=    0.000
 RMSDP=9.45D-05 MaxDP=4.05D-03 DE=-3.51D-03 OVMax= 1.92D-02

 Cycle   5  Pass 0  IDiag  1:
 RMSU=  4.17D-05    CP:  9.75D-01  7.89D-01  9.51D-01  5.23D-01
 CoulSu:  requested number of processors reduced to:  21 ShMem   1 Linda.
 E= -169.832996422682     Delta-E=       -0.002171067029 Rises=F Damp=F
 DIIS: error= 7.74D-04 at cycle   5 NSaved=   5.
 NSaved= 5 IEnMin= 5 EnMin= -169.832996422682     IErMin= 5 ErrMin= 7.74D-04
 ErrMax= 7.74D-04  0.00D+00 EMaxC= 1.00D-01 BMatC= 9.36D-05 BMatP= 3.04D-03
 IDIUse=3 WtCom= 9.92D-01 WtEn= 7.74D-03
 Coeff-Com: -0.287D-01 0.598D-01 0.190D+00 0.250D+00 0.529D+00
 Coeff-En:   0.000D+00 0.000D+00 0.000D+00 0.000D+00 0.100D+01
 Coeff:     -0.285D-01 0.593D-01 0.189D+00 0.248D+00 0.532D+00
 Gap=     0.369 Goal=   None    Shift=    0.000
 RMSDP=1.82D-05 MaxDP=5.48D-04 DE=-2.17D-03 OVMax= 3.23D-03

 Cycle   6  Pass 0  IDiag  1:
 RMSU=  1.28D-05    CP:  9.75D-01  7.91D-01  9.54D-01  5.66D-01  7.54D-01
 CoulSu:  requested number of processors reduced to:  21 ShMem   1 Linda.
 E= -169.833072298178     Delta-E=       -0.000075875497 Rises=F Damp=F
 DIIS: error= 1.13D-04 at cycle   6 NSaved=   6.
 NSaved= 6 IEnMin= 6 EnMin= -169.833072298178     IErMin= 6 ErrMin= 1.13D-04
 ErrMax= 1.13D-04  0.00D+00 EMaxC= 1.00D-01 BMatC= 1.90D-06 BMatP= 9.36D-05
 IDIUse=3 WtCom= 9.99D-01 WtEn= 1.13D-03
 Coeff-Com: -0.606D-03 0.116D-02 0.433D-02 0.221D-01 0.142D+00 0.831D+00
 Coeff-En:   0.000D+00 0.000D+00 0.000D+00 0.000D+00 0.000D+00 0.100D+01
 Coeff:     -0.606D-03 0.116D-02 0.432D-02 0.221D-01 0.142D+00 0.831D+00
 Gap=     0.369 Goal=   None    Shift=    0.000
 RMSDP=6.20D-06 MaxDP=3.19D-04 DE=-7.59D-05 OVMax= 2.92D-04

 Initial convergence to 1.0D-05 achieved.  Increase integral accuracy.
 Cycle   7  Pass 1  IDiag  1:
 CoulSu:  requested number of processors reduced to:  21 ShMem   1 Linda.
 E= -169.833081202385     Delta-E=       -0.000008904206 Rises=F Damp=F
 DIIS: error= 7.86D-05 at cycle   1 NSaved=   1.
 NSaved= 1 IEnMin= 1 EnMin= -169.833081202385     IErMin= 1 ErrMin= 7.86D-05
 ErrMax= 7.86D-05  0.00D+00 EMaxC= 1.00D-01 BMatC= 8.88D-07 BMatP= 8.88D-07
 IDIUse=1 WtCom= 1.00D+00 WtEn= 0.00D+00
 Coeff-Com:  0.100D+01
 Coeff:      0.100D+01
 Gap=     0.369 Goal=   None    Shift=    0.000
 RMSDP=6.20D-06 MaxDP=3.19D-04 DE=-8.90D-06 OVMax= 1.18D-04

 Cycle   8  Pass 1  IDiag  1:
 RMSU=  8.61D-06    CP:  1.00D+00
 CoulSu:  requested number of processors reduced to:  21 ShMem   1 Linda.
 E= -169.833081465352     Delta-E=       -0.000000262968 Rises=F Damp=F
 DIIS: error= 8.07D-06 at cycle   2 NSaved=   2.
 NSaved= 2 IEnMin= 2 EnMin= -169.833081465352     IErMin= 2 ErrMin= 8.07D-06
 ErrMax= 8.07D-06  0.00D+00 EMaxC= 1.00D-01 BMatC= 1.32D-08 BMatP= 8.88D-07
 IDIUse=1 WtCom= 1.00D+00 WtEn= 0.00D+00
 Coeff-Com: -0.898D-02 0.101D+01
 Coeff:     -0.898D-02 0.101D+01
 Gap=     0.369 Goal=   None    Shift=    0.000
 RMSDP=7.92D-07 MaxDP=4.83D-05 DE=-2.63D-07 OVMax= 4.23D-05

 Cycle   9  Pass 1  IDiag  1:
 RMSU=  4.98D-07    CP:  1.00D+00  1.07D+00
 CoulSu:  requested number of processors reduced to:  21 ShMem   1 Linda.
 E= -169.833081473369     Delta-E=       -0.000000008017 Rises=F Damp=F
 DIIS: error= 5.30D-06 at cycle   3 NSaved=   3.
 NSaved= 3 IEnMin= 3 EnMin= -169.833081473369     IErMin= 3 ErrMin= 5.30D-06
 ErrMax= 5.30D-06  0.00D+00 EMaxC= 1.00D-01 BMatC= 3.49D-09 BMatP= 1.32D-08
 IDIUse=1 WtCom= 1.00D+00 WtEn= 0.00D+00
 Coeff-Com: -0.178D-01 0.325D+00 0.693D+00
 Coeff:     -0.178D-01 0.325D+00 0.693D+00
 Gap=     0.369 Goal=   None    Shift=    0.000
 RMSDP=1.47D-07 MaxDP=5.59D-06 DE=-8.02D-09 OVMax= 1.57D-05

 Cycle  10  Pass 1  IDiag  1:
 RMSU=  1.18D-07    CP:  1.00D+00  1.07D+00  8.29D-01
 CoulSu:  requested number of processors reduced to:  21 ShMem   1 Linda.
 E= -169.833081476096     Delta-E=       -0.000000002727 Rises=F Damp=F
 DIIS: error= 1.30D-06 at cycle   4 NSaved=   4.
 NSaved= 4 IEnMin= 4 EnMin= -169.833081476096     IErMin= 4 ErrMin= 1.30D-06
 ErrMax= 1.30D-06  0.00D+00 EMaxC= 1.00D-01 BMatC= 2.43D-10 BMatP= 3.49D-09
 IDIUse=1 WtCom= 1.00D+00 WtEn= 0.00D+00
 Coeff-Com: -0.583D-02 0.657D-01 0.227D+00 0.713D+00
 Coeff:     -0.583D-02 0.657D-01 0.227D+00 0.713D+00
 Gap=     0.369 Goal=   None    Shift=    0.000
 RMSDP=6.16D-08 MaxDP=2.30D-06 DE=-2.73D-09 OVMax= 1.06D-05

 Cycle  11  Pass 1  IDiag  1:
 RMSU=  4.16D-08    CP:  1.00D+00  1.07D+00  8.97D-01  9.10D-01
 CoulSu:  requested number of processors reduced to:  21 ShMem   1 Linda.
 E= -169.833081476228     Delta-E=       -0.000000000132 Rises=F Damp=F
 DIIS: error= 9.64D-07 at cycle   5 NSaved=   5.
 NSaved= 5 IEnMin= 5 EnMin= -169.833081476228     IErMin= 5 ErrMin= 9.64D-07
 ErrMax= 9.64D-07  0.00D+00 EMaxC= 1.00D-01 BMatC= 1.52D-10 BMatP= 2.43D-10
 IDIUse=1 WtCom= 1.00D+00 WtEn= 0.00D+00
 Coeff-Com:  0.123D-03-0.320D-01-0.955D-02 0.465D+00 0.576D+00
 Coeff:      0.123D-03-0.320D-01-0.955D-02 0.465D+00 0.576D+00
 Gap=     0.369 Goal=   None    Shift=    0.000
 RMSDP=2.57D-08 MaxDP=9.35D-07 DE=-1.32D-10 OVMax= 4.12D-06

 Cycle  12  Pass 1  IDiag  1:
 RMSU=  1.57D-08    CP:  1.00D+00  1.07D+00  9.10D-01  1.03D+00  7.34D-01
 CoulSu:  requested number of processors reduced to:  21 ShMem   1 Linda.
 E= -169.833081476339     Delta-E=       -0.000000000111 Rises=F Damp=F
 DIIS: error= 2.78D-07 at cycle   6 NSaved=   6.
 NSaved= 6 IEnMin= 6 EnMin= -169.833081476339     IErMin= 6 ErrMin= 2.78D-07
 ErrMax= 2.78D-07  0.00D+00 EMaxC= 1.00D-01 BMatC= 5.93D-12 BMatP= 1.52D-10
 IDIUse=1 WtCom= 1.00D+00 WtEn= 0.00D+00
 Coeff-Com:  0.689D-03-0.201D-01-0.284D-01 0.133D+00 0.220D+00 0.695D+00
 Coeff:      0.689D-03-0.201D-01-0.284D-01 0.133D+00 0.220D+00 0.695D+00
 Gap=     0.369 Goal=   None    Shift=    0.000
 RMSDP=7.80D-09 MaxDP=3.15D-07 DE=-1.11D-10 OVMax= 1.81D-06

 SCF Done:  E(RM062X) =  -169.833081476     A.U. after   12 cycles
            NFock= 12  Conv=0.78D-08     -V/T= 2.0039
 KE= 1.691784969677D+02 PE=-5.443488227216D+02 EE= 1.323968758774D+02
 Leave Link  502 at Sun Apr 18 07:02:14 2021, MaxMem=   104857600 cpu:            1001.4 elap:              30.9
 (Enter /s/ls4/users/knvvv/bin/g16sse/l601.exe)
 Copying SCF densities to generalized density rwf, IOpCl= 0 IROHF=0.

 **********************************************************************

            Population analysis using the SCF density.

 **********************************************************************

 Orbital symmetries:
       Occupied  (A') (A') (A') (A') (A') (A') (A') (A') (A") (A')
                 (A') (A")
       Virtual   (A") (A') (A') (A') (A") (A') (A') (A') (A') (A')
                 (A") (A') (A') (A") (A') (A') (A') (A') (A") (A')
                 (A') (A") (A") (A') (A") (A') (A') (A") (A') (A')
                 (A') (A') (A') (A") (A') (A') (A") (A') (A') (A')
                 (A") (A') (A") (A') (A') (A") (A') (A") (A') (A')
                 (A') (A") (A') (A') (A') (A') (A") (A") (A') (A")
                 (A') (A') (A") (A') (A') (A") (A') (A") (A') (A")
                 (A") (A') (A") (A') (A") (A') (A') (A') (A") (A')
                 (A') (A') (A") (A") (A') (A") (A') (A') (A') (A')
                 (A") (A') (A') (A') (A") (A') (A') (A") (A') (A')
                 (A") (A") (A') (A') (A") (A') (A') (A") (A') (A")
                 (A') (A') (A") (A') (A") (A') (A') (A") (A') (A")
                 (A') (A') (A') (A') (A") (A') (A') (A") (A") (A')
                 (A") (A') (A') (A") (A') (A") (A') (A') (A') (A")
                 (A") (A') (A") (A") (A') (A') (A') (A") (A') (A')
                 (A') (A") (A") (A') (A') (A') (A") (A') (A") (A")
                 (A') (A") (A') (A') (A') (A") (A") (A') (A') (A")
                 (A") (A') (A') (A') (A') (A") (A") (A') (A') (A")
                 (A') (A') (A') (A") (A") (A') (A") (A') (A') (A')
                 (A") (A') (A") (A') (A") (A") (A') (A') (A") (A')
                 (A') (A") (A') (A') (A") (A') (A') (A') (A') (A")
                 (A") (A') (A') (A") (A") (A') (A") (A') (A') (A")
                 (A') (A') (A') (A") (A') (A') (A') (A") (A") (A')
                 (A") (A') (A") (A') (A') (A') (A') (A") (A') (A')
                 (A') (A') (A') (A') (A') (A') (A') (A') (A')
 The electronic state is 1-A'.
 Alpha  occ. eigenvalues --  -19.62893 -14.76056 -10.66106  -1.19782  -0.99164
 Alpha  occ. eigenvalues --   -0.70582  -0.66862  -0.52448  -0.50497  -0.45118
 Alpha  occ. eigenvalues --   -0.37862  -0.33822
 Alpha virt. eigenvalues --    0.03087   0.03864   0.06560   0.08834   0.14069
 Alpha virt. eigenvalues --    0.14086   0.16710   0.20384   0.25621   0.27556
 Alpha virt. eigenvalues --    0.28755   0.30579   0.33955   0.35320   0.35582
 Alpha virt. eigenvalues --    0.39095   0.42988   0.44945   0.45913   0.53809
 Alpha virt. eigenvalues --    0.55210   0.58498   0.61205   0.62847   0.71028
 Alpha virt. eigenvalues --    0.71458   0.73831   0.76034   0.78075   0.81303
 Alpha virt. eigenvalues --    0.83084   0.86661   0.91806   0.91894   0.94943
 Alpha virt. eigenvalues --    0.98061   1.06249   1.06545   1.07724   1.15723
 Alpha virt. eigenvalues --    1.17253   1.21089   1.21725   1.25853   1.29077
 Alpha virt. eigenvalues --    1.36435   1.38018   1.42674   1.43258   1.49440
 Alpha virt. eigenvalues --    1.51147   1.51655   1.62470   1.64118   1.74133
 Alpha virt. eigenvalues --    1.76353   1.77555   1.82517   1.90695   1.92107
 Alpha virt. eigenvalues --    1.94207   1.98215   2.01428   2.05942   2.12034
 Alpha virt. eigenvalues --    2.13022   2.20036   2.25462   2.26194   2.28045
 Alpha virt. eigenvalues --    2.28399   2.31724   2.37423   2.37654   2.40242
 Alpha virt. eigenvalues --    2.44963   2.48363   2.53831   2.54803   2.55198
 Alpha virt. eigenvalues --    2.63077   2.66746   2.67155   2.75505   2.76979
 Alpha virt. eigenvalues --    2.78460   2.81667   2.84711   2.89552   2.96983
 Alpha virt. eigenvalues --    3.02469   3.08481   3.12373   3.14581   3.20798
 Alpha virt. eigenvalues --    3.29099   3.30928   3.34043   3.47749   3.52226
 Alpha virt. eigenvalues --    3.53968   3.59792   3.63068   3.65329   3.66911
 Alpha virt. eigenvalues --    3.75700   3.79968   3.86518   3.91179   3.93834
 Alpha virt. eigenvalues --    4.01237   4.09577   4.11797   4.19859   4.25524
 Alpha virt. eigenvalues --    4.30423   4.37818   4.40057   4.54079   4.62885
 Alpha virt. eigenvalues --    4.64484   4.73342   4.79926   4.90195   4.95803
 Alpha virt. eigenvalues --    5.07770   5.21062   5.22631   5.29488   5.42187
 Alpha virt. eigenvalues --    5.44798   5.47227   5.48095   5.50801   5.55441
 Alpha virt. eigenvalues --    5.58200   5.63039   5.72526   5.76937   5.80222
 Alpha virt. eigenvalues --    5.83718   5.88685   5.95101   6.01005   6.01410
 Alpha virt. eigenvalues --    6.02822   6.12839   6.16439   6.20654   6.29847
 Alpha virt. eigenvalues --    6.45847   6.54679   6.58862   6.65084   6.72297
 Alpha virt. eigenvalues --    6.73017   6.77471   6.84873   6.88722   6.97691
 Alpha virt. eigenvalues --    6.99785   7.05791   7.06253   7.08118   7.17985
 Alpha virt. eigenvalues --    7.22564   7.27953   7.29368   7.32406   7.38825
 Alpha virt. eigenvalues --    7.40644   7.50854   7.57146   7.57938   7.60768
 Alpha virt. eigenvalues --    7.64444   7.69524   7.76940   7.80954   7.89917
 Alpha virt. eigenvalues --    7.92899   7.98243   8.06432   8.07705   8.10192
 Alpha virt. eigenvalues --    8.11388   8.18440   8.29712   8.33486   8.42989
 Alpha virt. eigenvalues --    8.44629   8.54950   8.59258   8.63496   8.66893
 Alpha virt. eigenvalues --    8.72482   8.73060   8.83917   8.86160   8.87419
 Alpha virt. eigenvalues --    8.92771   9.02436   9.03518   9.07026   9.15705
 Alpha virt. eigenvalues --    9.21556   9.24679   9.34431   9.46813   9.47543
 Alpha virt. eigenvalues --    9.61671   9.68139   9.74292   9.74909   9.88541
 Alpha virt. eigenvalues --   10.00144  10.07799  10.22687  10.35511  10.36519
 Alpha virt. eigenvalues --   10.43593  10.64500  10.89160  11.13527  11.22186
 Alpha virt. eigenvalues --   11.24893  11.50210  11.51034  11.54876  11.65764
 Alpha virt. eigenvalues --   11.67838  11.93672  12.10455  12.10997  12.24140
 Alpha virt. eigenvalues --   12.54719  12.65313  12.68558  12.85465  13.22151
 Alpha virt. eigenvalues --   13.92277  14.12121  14.59905  28.72561  38.03938
 Alpha virt. eigenvalues --   48.13558 146.12444 195.60276 251.22649
          Condensed to atoms (all electrons):
               1          2          3          4          5          6
     1  C    4.298512   0.395805   0.520167  -0.014803  -0.038073   0.580298
     2  H    0.395805   0.532271  -0.043647   0.000095   0.015069  -0.061757
     3  O    0.520167  -0.043647   7.971958   0.016275   0.192081  -0.225200
     4  H   -0.014803   0.000095   0.016275   0.449744  -0.007454   0.273882
     5  H   -0.038073   0.015069   0.192081  -0.007454   0.356050   0.185162
     6  N    0.580298  -0.061757  -0.225200   0.273882   0.185162   6.815667
 Mulliken charges:
               1
     1  C    0.258095
     2  H    0.162164
     3  O   -0.431634
     4  H    0.282261
     5  H    0.297165
     6  N   -0.568051
 Sum of Mulliken charges =  -0.00000
 Mulliken charges with hydrogens summed into heavy atoms:
               1
     1  C    0.420259
     3  O   -0.134469
     6  N   -0.285790
 Electronic spatial extent (au):  <R**2>=            134.7815
 Charge=             -0.0000 electrons
 Dipole moment (field-independent basis, Debye):
    X=              2.4273    Y=              1.3555    Z=              0.0000  Tot=              2.7801
 Quadrupole moment (field-independent basis, Debye-Ang):
   XX=            -18.8369   YY=            -15.5571   ZZ=            -19.1256
   XY=              0.6613   XZ=              0.0000   YZ=              0.0000
 Traceless Quadrupole moment (field-independent basis, Debye-Ang):
   XX=             -0.9970   YY=              2.2828   ZZ=             -1.2857
   XY=              0.6613   XZ=              0.0000   YZ=              0.0000
 Octapole moment (field-independent basis, Debye-Ang**2):
  XXX=             11.2109  YYY=              2.0961  ZZZ=              0.0000  XYY=             -1.7902
  XXY=              0.6524  XXZ=              0.0000  XZZ=             -1.2557  YZZ=              0.3387
  YYZ=              0.0000  XYZ=              0.0000
 Hexadecapole moment (field-independent basis, Debye-Ang**3):
 XXXX=            -89.9269 YYYY=            -37.7073 ZZZZ=            -18.2217 XXXY=              2.8042
 XXXZ=              0.0000 YYYX=              4.1940 YYYZ=              0.0000 ZZZX=              0.0000
 ZZZY=              0.0000 XXYY=            -26.0596 XXZZ=            -22.1896 YYZZ=            -10.6849
 XXYZ=              0.0000 YYXZ=              0.0000 ZZXY=              1.2110
 N-N= 7.294036840020D+01 E-N=-5.443488031415D+02  KE= 1.691784969677D+02
 PrsmSu:  requested number of processors reduced to:  21 ShMem   1 Linda.
 No NMR shielding tensors so no spin-rotation constants.
 Leave Link  601 at Sun Apr 18 07:02:18 2021, MaxMem=   104857600 cpu:             167.1 elap:               3.7
 (Enter /s/ls4/users/knvvv/bin/g16sse/l801.exe)
 DoSCS=F DFT=T ScalE2(SS,OS)=  1.000000  1.000000
 Range of M.O.s used for correlation:     1   261
 NBasis=   261 NAE=    12 NBE=    12 NFC=     0 NFV=     0
 NROrb=    261 NOA=    12 NOB=    12 NVA=   249 NVB=   249

 **** Warning!!: The largest alpha MO coefficient is  0.19779766D+02

 Leave Link  801 at Sun Apr 18 07:02:18 2021, MaxMem=   104857600 cpu:               3.7 elap:               0.1
 (Enter /s/ls4/users/knvvv/bin/g16sse/l914.exe)
 RHF ground state
 Doing stability rather than CIS.
 Two-electron integrals replicated using symmetry.
 MDV=   104857600 DFT=T DoStab=T Mixed=T DoRPA=F DoScal=F NonHer=F
 Making orbital integer symmetry assigments:
 Orbital symmetries:
       Occupied  (A') (A') (A') (A') (A') (A') (A') (A') (A") (A')
                 (A') (A")
       Virtual   (A") (A') (A') (A') (A") (A') (A') (A') (A') (A')
                 (A") (A') (A') (A") (A') (A') (A') (A') (A") (A')
                 (A') (A") (A") (A') (A") (A') (A') (A") (A') (A')
                 (A') (A') (A') (A") (A') (A') (A") (A') (A') (A')
                 (A") (A') (A") (A') (A') (A") (A') (A") (A') (A')
                 (A') (A") (A') (A') (A') (A') (A") (A") (A') (A")
                 (A') (A') (A") (A') (A') (A") (A') (A") (A') (A")
                 (A") (A') (A") (A') (A") (A') (A') (A') (A") (A')
                 (A') (A') (A") (A") (A') (A") (A') (A') (A') (A')
                 (A") (A') (A') (A') (A") (A') (A') (A") (A') (A')
                 (A") (A") (A') (A') (A") (A') (A') (A") (A') (A")
                 (A') (A') (A") (A') (A") (A') (A') (A") (A') (A")
                 (A') (A') (A') (A') (A") (A') (A') (A") (A") (A')
                 (A") (A') (A') (A") (A') (A") (A') (A') (A') (A")
                 (A") (A') (A") (A") (A') (A') (A') (A") (A') (A')
                 (A') (A") (A") (A') (A') (A') (A") (A') (A") (A")
                 (A') (A") (A') (A') (A') (A") (A") (A') (A') (A")
                 (A") (A') (A') (A') (A') (A") (A") (A') (A') (A")
                 (A') (A') (A') (A") (A") (A') (A") (A') (A') (A')
                 (A") (A') (A") (A') (A") (A") (A') (A') (A") (A')
                 (A') (A") (A') (A') (A") (A') (A') (A') (A') (A")
                 (A") (A') (A') (A") (A") (A') (A") (A') (A') (A")
                 (A') (A') (A') (A") (A') (A') (A') (A") (A") (A')
                 (A") (A') (A") (A') (A') (A') (A') (A") (A') (A')
                 (A') (A') (A') (A') (A') (A') (A') (A') (A')
    24 initial guesses have been made.
 Convergence on wavefunction:    0.001000000000000
 Davidson Disk Diagonalization:  ConvIn= 1.00D-03 SkipCon=T Conv= 1.00D-03.
 Max sub-space:  2000 roots to seek:    24 dimension of matrix:         5976
 Iteration     1 Dimension    24 NMult     0 NNew     24
 Estimated number of processors is:   18
 CISAX will form     1 AO SS matrices at one time.
 NMat=     1 NSing=     1 JSym2X= 2.
 FoFJK:  IHMeth= 1 ICntrl=       0 DoSepK=F KAlg= 0 I1Cent=           0 FoldK=F
 IRaf= 990000000 NMat=       1 IRICut=       1 DoRegI=T DoRafI=F ISym2E= 2 IDoP0=0 IntGTp=1.
 FoFCou: FMM=F IPFlag=           0 FMFlag=      100000 FMFlg1=           0
         NFxFlg=           0 DoJE=F BraDBF=F KetDBF=F FulRan=T
         wScrn=  0.000000 ICntrl=         0 IOpCl=  0 I1Cent=           0 NGrid=           0
         NMat0=    1 NMatS0=      1 NMatT0=    0 NMatD0=    1 NMtDS0=    0 NMtDT0=    0
 Integrals replicated using symmetry in FoFCou.
 CoulSu:  requested number of processors reduced to:  21 ShMem   1 Linda.
 NMat=     1 NSing=     1 JSym2X= 2.
 CoulSu:  requested number of processors reduced to:  21 ShMem   1 Linda.
 NMat=     1 NSing=     1 JSym2X= 2.
 CoulSu:  requested number of processors reduced to:  21 ShMem   1 Linda.
 NMat=     1 NSing=     1 JSym2X= 2.
 CoulSu:  requested number of processors reduced to:  21 ShMem   1 Linda.
 NMat=     1 NSing=     1 JSym2X= 2.
 CoulSu:  requested number of processors reduced to:  21 ShMem   1 Linda.
 NMat=     1 NSing=     1 JSym2X= 2.
 CoulSu:  requested number of processors reduced to:  21 ShMem   1 Linda.
 NMat=     1 NSing=     1 JSym2X= 2.
 CoulSu:  requested number of processors reduced to:  21 ShMem   1 Linda.
 NMat=     1 NSing=     1 JSym2X= 2.
 CoulSu:  requested number of processors reduced to:  21 ShMem   1 Linda.
 NMat=     1 NSing=     1 JSym2X= 2.
 CoulSu:  requested number of processors reduced to:  21 ShMem   1 Linda.
 NMat=     1 NSing=     1 JSym2X= 2.
 CoulSu:  requested number of processors reduced to:  21 ShMem   1 Linda.
 NMat=     1 NSing=     1 JSym2X= 2.
 CoulSu:  requested number of processors reduced to:  21 ShMem   1 Linda.
 NMat=     1 NSing=     1 JSym2X= 2.
 CoulSu:  requested number of processors reduced to:  21 ShMem   1 Linda.
 NMat=     1 NSing=     0 JSym2X= 2.
 CoulSu:  requested number of processors reduced to:  21 ShMem   1 Linda.
 NMat=     1 NSing=     0 JSym2X= 2.
 CoulSu:  requested number of processors reduced to:  21 ShMem   1 Linda.
 NMat=     1 NSing=     0 JSym2X= 2.
 CoulSu:  requested number of processors reduced to:  21 ShMem   1 Linda.
 NMat=     1 NSing=     0 JSym2X= 2.
 CoulSu:  requested number of processors reduced to:  21 ShMem   1 Linda.
 NMat=     1 NSing=     0 JSym2X= 2.
 CoulSu:  requested number of processors reduced to:  21 ShMem   1 Linda.
 NMat=     1 NSing=     0 JSym2X= 2.
 CoulSu:  requested number of processors reduced to:  21 ShMem   1 Linda.
 NMat=     1 NSing=     0 JSym2X= 2.
 CoulSu:  requested number of processors reduced to:  21 ShMem   1 Linda.
 NMat=     1 NSing=     0 JSym2X= 2.
 CoulSu:  requested number of processors reduced to:  21 ShMem   1 Linda.
 NMat=     1 NSing=     0 JSym2X= 2.
 CoulSu:  requested number of processors reduced to:  21 ShMem   1 Linda.
 NMat=     1 NSing=     0 JSym2X= 2.
 CoulSu:  requested number of processors reduced to:  21 ShMem   1 Linda.
 NMat=     1 NSing=     0 JSym2X= 2.
 CoulSu:  requested number of processors reduced to:  21 ShMem   1 Linda.
 NMat=     1 NSing=     0 JSym2X= 2.
 CoulSu:  requested number of processors reduced to:  21 ShMem   1 Linda.
 New state      1 was old state      2
 Excitation Energies [eV] at current iteration:
 Root      1 :     4.022761879327940
 Root      2 :     6.078467836605063
 Root      3 :     6.869735771471513
 Root      4 :     7.405225475265817
 Root      5 :     7.479645495195302
 Root      6 :     7.497016349669613
 Root      7 :     7.991156939801202
 Root      8 :     8.037952621849024
 Root      9 :     8.110144564161095
 Root     10 :     8.262832293471043
 Root     11 :     8.794910169646233
 Root     12 :     8.824984461687777
 Root     13 :     9.066516816275652
 Root     14 :     9.310603830659069
 Root     15 :     9.344916233625499
 Root     16 :     9.983001265050849
 Root     17 :     9.993743815254534
 Root     18 :    10.230070747427380
 Root     19 :    10.230784709375700
 Root     20 :    10.260904238518040
 Root     21 :    10.378457248144810
 Root     22 :    10.588093463582720
 Root     23 :    11.119264989172590
 Root     24 :    14.803153920073210
 Iteration     2 Dimension    48 NMult    24 NNew     24
 Estimated number of processors is:   18
 CISAX will form     1 AO SS matrices at one time.
 NMat=     1 NSing=     1 JSym2X= 2.
 CoulSu:  requested number of processors reduced to:  21 ShMem   1 Linda.
 NMat=     1 NSing=     1 JSym2X= 2.
 CoulSu:  requested number of processors reduced to:  21 ShMem   1 Linda.
 NMat=     1 NSing=     1 JSym2X= 2.
 CoulSu:  requested number of processors reduced to:  21 ShMem   1 Linda.
 NMat=     1 NSing=     1 JSym2X= 2.
 CoulSu:  requested number of processors reduced to:  21 ShMem   1 Linda.
 NMat=     1 NSing=     1 JSym2X= 2.
 CoulSu:  requested number of processors reduced to:  21 ShMem   1 Linda.
 NMat=     1 NSing=     1 JSym2X= 2.
 CoulSu:  requested number of processors reduced to:  21 ShMem   1 Linda.
 NMat=     1 NSing=     1 JSym2X= 2.
 CoulSu:  requested number of processors reduced to:  21 ShMem   1 Linda.
 NMat=     1 NSing=     1 JSym2X= 2.
 CoulSu:  requested number of processors reduced to:  21 ShMem   1 Linda.
 NMat=     1 NSing=     1 JSym2X= 2.
 CoulSu:  requested number of processors reduced to:  21 ShMem   1 Linda.
 NMat=     1 NSing=     1 JSym2X= 2.
 CoulSu:  requested number of processors reduced to:  21 ShMem   1 Linda.
 NMat=     1 NSing=     1 JSym2X= 2.
 CoulSu:  requested number of processors reduced to:  21 ShMem   1 Linda.
 NMat=     1 NSing=     1 JSym2X= 2.
 CoulSu:  requested number of processors reduced to:  21 ShMem   1 Linda.
 NMat=     1 NSing=     0 JSym2X= 2.
 CoulSu:  requested number of processors reduced to:  21 ShMem   1 Linda.
 NMat=     1 NSing=     0 JSym2X= 2.
 CoulSu:  requested number of processors reduced to:  21 ShMem   1 Linda.
 NMat=     1 NSing=     0 JSym2X= 2.
 CoulSu:  requested number of processors reduced to:  21 ShMem   1 Linda.
 NMat=     1 NSing=     0 JSym2X= 2.
 CoulSu:  requested number of processors reduced to:  21 ShMem   1 Linda.
 NMat=     1 NSing=     0 JSym2X= 2.
 CoulSu:  requested number of processors reduced to:  21 ShMem   1 Linda.
 NMat=     1 NSing=     0 JSym2X= 2.
 CoulSu:  requested number of processors reduced to:  21 ShMem   1 Linda.
 NMat=     1 NSing=     0 JSym2X= 2.
 CoulSu:  requested number of processors reduced to:  21 ShMem   1 Linda.
 NMat=     1 NSing=     0 JSym2X= 2.
 CoulSu:  requested number of processors reduced to:  21 ShMem   1 Linda.
 NMat=     1 NSing=     0 JSym2X= 2.
 CoulSu:  requested number of processors reduced to:  21 ShMem   1 Linda.
 NMat=     1 NSing=     0 JSym2X= 2.
 CoulSu:  requested number of processors reduced to:  21 ShMem   1 Linda.
 NMat=     1 NSing=     0 JSym2X= 2.
 CoulSu:  requested number of processors reduced to:  21 ShMem   1 Linda.
 NMat=     1 NSing=     0 JSym2X= 2.
 CoulSu:  requested number of processors reduced to:  21 ShMem   1 Linda.
 Root      1 not converged, maximum delta is    0.100971017056928
 Excitation Energies [eV] at current iteration:
 Root      1 :     3.409638884585146   Change is   -0.613122994742794
 Root      2 :     5.431018514975007   Change is   -0.647449321630057
 Root      3 :     6.501398678455759   Change is   -0.995617671213854
 Root      4 :     6.587103228286775   Change is   -0.282632543184738
 Root      5 :     6.967597472251276   Change is   -1.023559467549926
 Root      6 :     7.069143338657107   Change is   -0.336082136608709
 Root      7 :     7.313060703851793   Change is   -0.166584791343509
 Root      8 :     7.740668519532525   Change is   -0.297284102316499
 Root      9 :     7.947524891070739   Change is   -0.162619673090356
 Root     10 :     7.983995221407813   Change is   -0.278837072063229
 Root     11 :     8.582114072110901   Change is   -0.242870389576876
 Root     12 :     8.610485277558396   Change is   -0.184424892087836
 Root     13 :     8.797444109422244   Change is   -0.269072706853406
 Root     14 :     9.029556447116009   Change is   -0.281047383543060
 Root     15 :     9.157358984371088   Change is   -0.187557249254411
 Root     16 :     9.575204774712230   Change is   -0.407796490338619
 Root     17 :     9.627320089867487   Change is   -0.366423725387047
 Root     18 :     9.821263383857923   Change is   -0.766830079724795
 Root     19 :     9.884647744194842   Change is   -0.345423003232542
 Root     20 :    10.050156366299850   Change is   -0.180628343075853
 Root     21 :    10.075909857477170   Change is   -0.184994381040867
 Root     22 :    10.192171760269650   Change is   -0.186285487875156
 Root     23 :    10.422347921464060   Change is   -4.380805998609151
 Root     24 :    10.802647474018680   Change is   -0.316617515153911
 Iteration     3 Dimension    54 NMult    48 NNew      6
 Estimated number of processors is:   18
 CISAX will form     1 AO SS matrices at one time.
 NMat=     1 NSing=     1 JSym2X= 2.
 CoulSu:  requested number of processors reduced to:  21 ShMem   1 Linda.
 NMat=     1 NSing=     1 JSym2X= 2.
 CoulSu:  requested number of processors reduced to:  21 ShMem   1 Linda.
 NMat=     1 NSing=     1 JSym2X= 2.
 CoulSu:  requested number of processors reduced to:  21 ShMem   1 Linda.
 NMat=     1 NSing=     0 JSym2X= 2.
 CoulSu:  requested number of processors reduced to:  21 ShMem   1 Linda.
 NMat=     1 NSing=     0 JSym2X= 2.
 CoulSu:  requested number of processors reduced to:  21 ShMem   1 Linda.
 NMat=     1 NSing=     0 JSym2X= 2.
 CoulSu:  requested number of processors reduced to:  21 ShMem   1 Linda.
 Root      1 not converged, maximum delta is    0.007095918272514
 Excitation Energies [eV] at current iteration:
 Root      1 :     3.393127786675239   Change is   -0.016511097909908
 Root      2 :     5.415817523581953   Change is   -0.015200991393053
 Root      3 :     6.429519744621042   Change is   -0.071878933834717
 Root      4 :     6.545978707329661   Change is   -0.041124520957114
 Root      5 :     6.903224229318561   Change is   -0.064373242932714
 Root      6 :     7.297291605836896   Change is   -0.015769098014897
 Iteration     4 Dimension    60 NMult    54 NNew      6
 Estimated number of processors is:   18
 CISAX will form     1 AO SS matrices at one time.
 NMat=     1 NSing=     1 JSym2X= 2.
 CoulSu:  requested number of processors reduced to:  21 ShMem   1 Linda.
 NMat=     1 NSing=     1 JSym2X= 2.
 CoulSu:  requested number of processors reduced to:  21 ShMem   1 Linda.
 NMat=     1 NSing=     1 JSym2X= 2.
 CoulSu:  requested number of processors reduced to:  21 ShMem   1 Linda.
 NMat=     1 NSing=     0 JSym2X= 2.
 CoulSu:  requested number of processors reduced to:  21 ShMem   1 Linda.
 NMat=     1 NSing=     0 JSym2X= 2.
 CoulSu:  requested number of processors reduced to:  21 ShMem   1 Linda.
 NMat=     1 NSing=     0 JSym2X= 2.
 CoulSu:  requested number of processors reduced to:  21 ShMem   1 Linda.
 Root      1 not converged, maximum delta is    0.001760045909425
 Excitation Energies [eV] at current iteration:
 Root      1 :     3.392418964169421   Change is   -0.000708822505817
 Root      2 :     5.414995870644741   Change is   -0.000821652937212
 Root      3 :     6.423985248426503   Change is   -0.005534496194539
 Root      4 :     6.544497453370667   Change is   -0.001481253958995
 Root      5 :     6.896364977058524   Change is   -0.006859252260038
 Root      6 :     7.295609138839914   Change is   -0.001682466996982
 Iteration     5 Dimension    66 NMult    60 NNew      6
 Estimated number of processors is:   18
 CISAX will form     1 AO SS matrices at one time.
 NMat=     1 NSing=     1 JSym2X= 2.
 CoulSu:  requested number of processors reduced to:  21 ShMem   1 Linda.
 NMat=     1 NSing=     1 JSym2X= 2.
 CoulSu:  requested number of processors reduced to:  21 ShMem   1 Linda.
 NMat=     1 NSing=     1 JSym2X= 2.
 CoulSu:  requested number of processors reduced to:  21 ShMem   1 Linda.
 NMat=     1 NSing=     0 JSym2X= 2.
 CoulSu:  requested number of processors reduced to:  21 ShMem   1 Linda.
 NMat=     1 NSing=     0 JSym2X= 2.
 CoulSu:  requested number of processors reduced to:  21 ShMem   1 Linda.
 NMat=     1 NSing=     0 JSym2X= 2.
 CoulSu:  requested number of processors reduced to:  21 ShMem   1 Linda.
 Root      1 not converged, maximum delta is    0.001017381191362
 Excitation Energies [eV] at current iteration:
 Root      1 :     3.392374371705834   Change is   -0.000044592463587
 Root      2 :     5.414957130774483   Change is   -0.000038739870258
 Root      3 :     6.423507405058122   Change is   -0.000477843368381
 Root      4 :     6.544403095148793   Change is   -0.000094358221874
 Root      5 :     6.895020236414489   Change is   -0.001344740644035
 Root      6 :     7.295522385287498   Change is   -0.000086753552416
 Iteration     6 Dimension    72 NMult    66 NNew      6
 Estimated number of processors is:   18
 CISAX will form     1 AO SS matrices at one time.
 NMat=     1 NSing=     1 JSym2X= 2.
 CoulSu:  requested number of processors reduced to:  21 ShMem   1 Linda.
 NMat=     1 NSing=     1 JSym2X= 2.
 CoulSu:  requested number of processors reduced to:  21 ShMem   1 Linda.
 NMat=     1 NSing=     1 JSym2X= 2.
 CoulSu:  requested number of processors reduced to:  21 ShMem   1 Linda.
 NMat=     1 NSing=     0 JSym2X= 2.
 CoulSu:  requested number of processors reduced to:  21 ShMem   1 Linda.
 NMat=     1 NSing=     0 JSym2X= 2.
 CoulSu:  requested number of processors reduced to:  21 ShMem   1 Linda.
 NMat=     1 NSing=     0 JSym2X= 2.
 CoulSu:  requested number of processors reduced to:  21 ShMem   1 Linda.
 Root      1 has converged.
 Excitation Energies [eV] at current iteration:
 Root      1 :     3.392370310495488   Change is   -0.000004061210346
 Root      2 :     5.414955478392409   Change is   -0.000001652382074
 Root      3 :     6.423464940752647   Change is   -0.000042464305476
 Root      4 :     6.544397780731116   Change is   -0.000005314417676
 Root      5 :     6.893473009451252   Change is   -0.001547226963236
 Root      6 :     7.295518243143027   Change is   -0.000004142144471
 Convergence achieved on expansion vectors.
 ***********************************************************************
 Stability analysis using <AA,BB:AA,BB> singles matrix:
 ***********************************************************************
 1PDM for each excited state written to RWF  633
 Ground to excited state transition densities written to RWF  633

 Eigenvectors of the stability matrix:
 
 Eigenvector   1:      Triplet-A'   Eigenvalue= 0.1246673  <S**2>=2.000
      12 -> 13         0.68332
      12 -> 23         0.10054
 The wavefunction is stable under the perturbations considered.
 Leave Link  914 at Sun Apr 18 07:10:02 2021, MaxMem=   104857600 cpu:           18804.9 elap:             463.7
 (Enter /s/ls4/users/knvvv/bin/g16sse/l508.exe)
 The wavefunction is already stable.
 Leave Link  508 at Sun Apr 18 07:10:02 2021, MaxMem=   104857600 cpu:               2.2 elap:               0.1
 (Enter /s/ls4/users/knvvv/bin/g16sse/l601.exe)
 Copying SCF densities to generalized density rwf, IOpCl= 0 IROHF=0.

 **********************************************************************

            Population analysis using the SCF density.

 **********************************************************************

 Orbital symmetries:
       Occupied  (A') (A') (A') (A') (A') (A') (A') (A') (A") (A')
                 (A') (A")
       Virtual   (A") (A') (A') (A') (A") (A') (A') (A') (A') (A')
                 (A") (A') (A') (A") (A') (A') (A') (A') (A") (A')
                 (A') (A") (A") (A') (A") (A') (A') (A") (A') (A')
                 (A') (A') (A') (A") (A') (A') (A") (A') (A') (A')
                 (A") (A') (A") (A') (A') (A") (A') (A") (A') (A')
                 (A') (A") (A') (A') (A') (A') (A") (A") (A') (A")
                 (A') (A') (A") (A') (A') (A") (A') (A") (A') (A")
                 (A") (A') (A") (A') (A") (A') (A') (A') (A") (A')
                 (A') (A') (A") (A") (A') (A") (A') (A') (A') (A')
                 (A") (A') (A') (A') (A") (A') (A') (A") (A') (A')
                 (A") (A") (A') (A') (A") (A') (A') (A") (A') (A")
                 (A') (A') (A") (A') (A") (A') (A') (A") (A') (A")
                 (A') (A') (A') (A') (A") (A') (A') (A") (A") (A')
                 (A") (A') (A') (A") (A') (A") (A') (A') (A') (A")
                 (A") (A') (A") (A") (A') (A') (A') (A") (A') (A')
                 (A') (A") (A") (A') (A') (A') (A") (A') (A") (A")
                 (A') (A") (A') (A') (A') (A") (A") (A') (A') (A")
                 (A") (A') (A') (A') (A') (A") (A") (A') (A') (A")
                 (A') (A') (A') (A") (A") (A') (A") (A') (A') (A')
                 (A") (A') (A") (A') (A") (A") (A') (A') (A") (A')
                 (A') (A") (A') (A') (A") (A') (A') (A') (A') (A")
                 (A") (A') (A') (A") (A") (A') (A") (A') (A') (A")
                 (A') (A') (A') (A") (A') (A') (A') (A") (A") (A')
                 (A") (A') (A") (A') (A') (A') (A') (A") (A') (A')
                 (A') (A') (A') (A') (A') (A') (A') (A') (A')
 The electronic state is 1-A'.
 Alpha  occ. eigenvalues --  -19.62893 -14.76056 -10.66106  -1.19782  -0.99164
 Alpha  occ. eigenvalues --   -0.70582  -0.66862  -0.52448  -0.50497  -0.45118
 Alpha  occ. eigenvalues --   -0.37862  -0.33822
 Alpha virt. eigenvalues --    0.03087   0.03864   0.06560   0.08834   0.14069
 Alpha virt. eigenvalues --    0.14086   0.16710   0.20384   0.25621   0.27556
 Alpha virt. eigenvalues --    0.28755   0.30579   0.33955   0.35320   0.35582
 Alpha virt. eigenvalues --    0.39095   0.42988   0.44945   0.45913   0.53809
 Alpha virt. eigenvalues --    0.55210   0.58498   0.61205   0.62847   0.71028
 Alpha virt. eigenvalues --    0.71458   0.73831   0.76034   0.78075   0.81303
 Alpha virt. eigenvalues --    0.83084   0.86661   0.91806   0.91894   0.94943
 Alpha virt. eigenvalues --    0.98061   1.06249   1.06545   1.07724   1.15723
 Alpha virt. eigenvalues --    1.17253   1.21089   1.21725   1.25853   1.29077
 Alpha virt. eigenvalues --    1.36435   1.38018   1.42674   1.43258   1.49440
 Alpha virt. eigenvalues --    1.51147   1.51655   1.62470   1.64118   1.74133
 Alpha virt. eigenvalues --    1.76353   1.77555   1.82517   1.90695   1.92107
 Alpha virt. eigenvalues --    1.94207   1.98215   2.01428   2.05942   2.12034
 Alpha virt. eigenvalues --    2.13022   2.20036   2.25462   2.26194   2.28045
 Alpha virt. eigenvalues --    2.28399   2.31724   2.37423   2.37654   2.40242
 Alpha virt. eigenvalues --    2.44963   2.48363   2.53831   2.54803   2.55198
 Alpha virt. eigenvalues --    2.63077   2.66746   2.67155   2.75505   2.76979
 Alpha virt. eigenvalues --    2.78460   2.81667   2.84711   2.89552   2.96983
 Alpha virt. eigenvalues --    3.02469   3.08481   3.12373   3.14581   3.20798
 Alpha virt. eigenvalues --    3.29099   3.30928   3.34043   3.47749   3.52226
 Alpha virt. eigenvalues --    3.53968   3.59792   3.63068   3.65329   3.66911
 Alpha virt. eigenvalues --    3.75700   3.79968   3.86518   3.91179   3.93834
 Alpha virt. eigenvalues --    4.01237   4.09577   4.11797   4.19859   4.25524
 Alpha virt. eigenvalues --    4.30423   4.37818   4.40057   4.54079   4.62885
 Alpha virt. eigenvalues --    4.64484   4.73342   4.79926   4.90195   4.95803
 Alpha virt. eigenvalues --    5.07770   5.21062   5.22631   5.29488   5.42187
 Alpha virt. eigenvalues --    5.44798   5.47227   5.48095   5.50801   5.55441
 Alpha virt. eigenvalues --    5.58200   5.63039   5.72526   5.76937   5.80222
 Alpha virt. eigenvalues --    5.83718   5.88685   5.95101   6.01005   6.01410
 Alpha virt. eigenvalues --    6.02822   6.12839   6.16439   6.20654   6.29847
 Alpha virt. eigenvalues --    6.45847   6.54679   6.58862   6.65084   6.72297
 Alpha virt. eigenvalues --    6.73017   6.77471   6.84873   6.88722   6.97691
 Alpha virt. eigenvalues --    6.99785   7.05791   7.06253   7.08118   7.17985
 Alpha virt. eigenvalues --    7.22564   7.27953   7.29368   7.32406   7.38825
 Alpha virt. eigenvalues --    7.40644   7.50854   7.57146   7.57938   7.60768
 Alpha virt. eigenvalues --    7.64444   7.69524   7.76940   7.80954   7.89917
 Alpha virt. eigenvalues --    7.92899   7.98243   8.06432   8.07705   8.10192
 Alpha virt. eigenvalues --    8.11388   8.18440   8.29712   8.33486   8.42989
 Alpha virt. eigenvalues --    8.44629   8.54950   8.59258   8.63496   8.66893
 Alpha virt. eigenvalues --    8.72482   8.73060   8.83917   8.86160   8.87419
 Alpha virt. eigenvalues --    8.92771   9.02436   9.03518   9.07026   9.15705
 Alpha virt. eigenvalues --    9.21556   9.24679   9.34431   9.46813   9.47543
 Alpha virt. eigenvalues --    9.61671   9.68139   9.74292   9.74909   9.88541
 Alpha virt. eigenvalues --   10.00144  10.07799  10.22687  10.35511  10.36519
 Alpha virt. eigenvalues --   10.43593  10.64500  10.89160  11.13527  11.22186
 Alpha virt. eigenvalues --   11.24893  11.50210  11.51034  11.54876  11.65764
 Alpha virt. eigenvalues --   11.67838  11.93672  12.10455  12.10997  12.24140
 Alpha virt. eigenvalues --   12.54719  12.65313  12.68558  12.85465  13.22151
 Alpha virt. eigenvalues --   13.92277  14.12121  14.59905  28.72561  38.03938
 Alpha virt. eigenvalues --   48.13558 146.12444 195.60276 251.22649
          Condensed to atoms (all electrons):
               1          2          3          4          5          6
     1  C    4.298512   0.395805   0.520167  -0.014803  -0.038073   0.580298
     2  H    0.395805   0.532271  -0.043647   0.000095   0.015069  -0.061757
     3  O    0.520167  -0.043647   7.971958   0.016275   0.192081  -0.225200
     4  H   -0.014803   0.000095   0.016275   0.449744  -0.007454   0.273882
     5  H   -0.038073   0.015069   0.192081  -0.007454   0.356050   0.185162
     6  N    0.580298  -0.061757  -0.225200   0.273882   0.185162   6.815667
 Mulliken charges:
               1
     1  C    0.258095
     2  H    0.162164
     3  O   -0.431634
     4  H    0.282261
     5  H    0.297165
     6  N   -0.568051
 Sum of Mulliken charges =  -0.00000
 Mulliken charges with hydrogens summed into heavy atoms:
               1
     1  C    0.420259
     3  O   -0.134469
     6  N   -0.285790
 Electronic spatial extent (au):  <R**2>=            134.7815
 Charge=             -0.0000 electrons
 Dipole moment (field-independent basis, Debye):
    X=              2.4273    Y=              1.3555    Z=              0.0000  Tot=              2.7801
 Quadrupole moment (field-independent basis, Debye-Ang):
   XX=            -18.8369   YY=            -15.5571   ZZ=            -19.1256
   XY=              0.6613   XZ=              0.0000   YZ=              0.0000
 Traceless Quadrupole moment (field-independent basis, Debye-Ang):
   XX=             -0.9970   YY=              2.2828   ZZ=             -1.2857
   XY=              0.6613   XZ=              0.0000   YZ=              0.0000
 Octapole moment (field-independent basis, Debye-Ang**2):
  XXX=             11.2109  YYY=              2.0961  ZZZ=              0.0000  XYY=             -1.7902
  XXY=              0.6524  XXZ=              0.0000  XZZ=             -1.2557  YZZ=              0.3387
  YYZ=              0.0000  XYZ=              0.0000
 Hexadecapole moment (field-independent basis, Debye-Ang**3):
 XXXX=            -89.9269 YYYY=            -37.7073 ZZZZ=            -18.2217 XXXY=              2.8042
 XXXZ=              0.0000 YYYX=              4.1940 YYYZ=              0.0000 ZZZX=              0.0000
 ZZZY=              0.0000 XXYY=            -26.0596 XXZZ=            -22.1896 YYZZ=            -10.6849
 XXYZ=              0.0000 YYXZ=              0.0000 ZZXY=              1.2110
 N-N= 7.294036840020D+01 E-N=-5.443488031415D+02  KE= 1.691784969677D+02
 PrsmSu:  requested number of processors reduced to:  21 ShMem   1 Linda.
 No NMR shielding tensors so no spin-rotation constants.
 Leave Link  601 at Sun Apr 18 07:10:05 2021, MaxMem=   104857600 cpu:             160.3 elap:               3.5
 (Enter /s/ls4/users/knvvv/bin/g16sse/l9999.exe)

 Test job not archived.
 1\1\GINC-N178\Stability\RM062X\def2QZVP\C1H3N1O1\KNVVV\18-Apr-2021\0\\
 #P M062X/Def2QZVP Integral=UltraFineGrid SCF=NoSymm Stable=(RExt, Opt)
  IOp(1/33=1)\\Database calculations.\\0,1\C,0,0.,0.509558,0.\H,0,0.037
 758,1.595479,0.\O,0,-1.099586,-0.147769,0.\H,0,1.969129,-0.08722,0.\H,
 0,-0.131827,-1.064473,0.\N,0,0.988804,-0.331283,0.\\Version=ES64L-G16R
 evA.03\State=1-A'\HF=-169.8330815\RMSD=7.799e-09\Dipole=0.9549689,0.53
 33085,0.\Quadrupole=-0.7412816,1.6971816,-0.9559,0.4916296,0.,0.\PG=CS
  [SG(C1H3N1O1)]\\@


 A COMPUTER IS LIKE A HORSE, IT WILL SENSE WEAKNESS.
     -- GREG WETTSTEIN
 Job cpu time:       0 days  5 hours 44 minutes 20.3 seconds.
 Elapsed time:       0 days  0 hours  8 minutes 33.5 seconds.
 File lengths (MBytes):  RWF=    176 Int=      0 D2E=      0 Chk=      9 Scr=      1
 Normal termination of Gaussian 16 at Sun Apr 18 07:10:05 2021.
