 Entering Gaussian System, Link 0=/s/ls4/users/knvvv/bin/g16sse/g16
 Input=data/database/M062X--def2-QZVPPD--221_of_W4-11.gjf
 Output=data/database/M062X--def2-QZVPPD--221_of_W4-11.log
 Initial command:
 /s/ls4/users/knvvv/bin/g16sse/l1.exe "/s/ls4/users/knvvv/bin/scratch/Gau-19997.inp" -scrdir="/s/ls4/users/knvvv/bin/scratch/"
 Entering Link 1 = /s/ls4/users/knvvv/bin/g16sse/l1.exe PID=     19998.
  
 Copyright (c) 1988,1990,1992,1993,1995,1998,2003,2009,2016,
            Gaussian, Inc.  All Rights Reserved.
  
 This is part of the Gaussian(R) 16 program.  It is based on
 the Gaussian(R) 09 system (copyright 2009, Gaussian, Inc.),
 the Gaussian(R) 03 system (copyright 2003, Gaussian, Inc.),
 the Gaussian(R) 98 system (copyright 1998, Gaussian, Inc.),
 the Gaussian(R) 94 system (copyright 1995, Gaussian, Inc.),
 the Gaussian 92(TM) system (copyright 1992, Gaussian, Inc.),
 the Gaussian 90(TM) system (copyright 1990, Gaussian, Inc.),
 the Gaussian 88(TM) system (copyright 1988, Gaussian, Inc.),
 the Gaussian 86(TM) system (copyright 1986, Carnegie Mellon
 University), and the Gaussian 82(TM) system (copyright 1983,
 Carnegie Mellon University). Gaussian is a federally registered
 trademark of Gaussian, Inc.
  
 This software contains proprietary and confidential information,
 including trade secrets, belonging to Gaussian, Inc.
  
 This software is provided under written license and may be
 used, copied, transmitted, or stored only in accord with that
 written license.
  
 The following legend is applicable only to US Government
 contracts under FAR:
  
                    RESTRICTED RIGHTS LEGEND
  
 Use, reproduction and disclosure by the US Government is
 subject to restrictions as set forth in subparagraphs (a)
 and (c) of the Commercial Computer Software - Restricted
 Rights clause in FAR 52.227-19.
  
 Gaussian, Inc.
 340 Quinnipiac St., Bldg. 40, Wallingford CT 06492
  
  
 ---------------------------------------------------------------
 Warning -- This program may not be used in any manner that
 competes with the business of Gaussian, Inc. or will provide
 assistance to any competitor of Gaussian, Inc.  The licensee
 of this program is prohibited from giving any competitor of
 Gaussian, Inc. access to this program.  By using this program,
 the user acknowledges that Gaussian, Inc. is engaged in the
 business of creating and licensing software in the field of
 computational chemistry and represents and warrants to the
 licensee that it is not a competitor of Gaussian, Inc. and that
 it will not use this program in any manner prohibited above.
 ---------------------------------------------------------------
  

 Cite this work as:
 Gaussian 16, Revision A.03,
 M. J. Frisch, G. W. Trucks, H. B. Schlegel, G. E. Scuseria, 
 M. A. Robb, J. R. Cheeseman, G. Scalmani, V. Barone, 
 G. A. Petersson, H. Nakatsuji, X. Li, M. Caricato, A. V. Marenich, 
 J. Bloino, B. G. Janesko, R. Gomperts, B. Mennucci, H. P. Hratchian, 
 J. V. Ortiz, A. F. Izmaylov, J. L. Sonnenberg, D. Williams-Young, 
 F. Ding, F. Lipparini, F. Egidi, J. Goings, B. Peng, A. Petrone, 
 T. Henderson, D. Ranasinghe, V. G. Zakrzewski, J. Gao, N. Rega, 
 G. Zheng, W. Liang, M. Hada, M. Ehara, K. Toyota, R. Fukuda, 
 J. Hasegawa, M. Ishida, T. Nakajima, Y. Honda, O. Kitao, H. Nakai, 
 T. Vreven, K. Throssell, J. A. Montgomery, Jr., J. E. Peralta, 
 F. Ogliaro, M. J. Bearpark, J. J. Heyd, E. N. Brothers, K. N. Kudin, 
 V. N. Staroverov, T. A. Keith, R. Kobayashi, J. Normand, 
 K. Raghavachari, A. P. Rendell, J. C. Burant, S. S. Iyengar, 
 J. Tomasi, M. Cossi, J. M. Millam, M. Klene, C. Adamo, R. Cammi, 
 J. W. Ochterski, R. L. Martin, K. Morokuma, O. Farkas, 
 J. B. Foresman, and D. J. Fox, Gaussian, Inc., Wallingford CT, 2016.
 
 ******************************************
 Gaussian 16:  ES64L-G16RevA.03 25-Dec-2016
                17-Apr-2021 
 ******************************************
 %RWF=temp7_16823,70GB
 %nprocshared=48
 Will use up to   48 processors via shared memory.
 Default route: MaxDisk=80GB
 ----------------------------------------------------------------------
 #P M062X/GEN Integral=UltraFineGrid SCF=NoSymm Stable=(RExt, Opt) IOp(
 1/33=1)
 ----------------------------------------------------------------------
 1/33=1,38=1,172=1/1;
 2/12=2,17=6,18=5,40=1/2;
 3/5=7,11=2,25=1,30=1,74=-55,75=-5/1,2,3;
 4/9=2/1;
 5/5=2,38=5/2;
 6/7=2,8=2,9=2,10=2,28=1/1;
 8/6=1,10=90,11=11/1;
 9/8=-3,42=1,46=1/14;
 5/5=2,8=3,17=40,38=5/8(-2);
 6/7=2,8=2,9=2,10=2,28=1/1;
 99/5=1,9=1/99;
 Leave Link    1 at Sat Apr 17 20:25:33 2021, MaxMem=           0 cpu:               8.4 elap:               0.2
 (Enter /s/ls4/users/knvvv/bin/g16sse/l101.exe)
 ONIOM data not found on unit 2.
 ----------------------
 Database calculations.
 ----------------------
 TstMul:  ICh=     0
 TstMul:  Mul=     2
 TstMul:  ICh=     0
 TstMul:  Mul=     2
 Symbolic Z-matrix:
 Charge =  0 Multiplicity = 2
 O                     0.        0.        0. 
 F                     0.        0.        1.353 
 
 RdStrC is calling ZToCFu for IStruc=1 NZ=     2.
 PrtBox:  NBox=     1 Levels=  1 BoxLen=    8.00 SMaxX=        2.56
          Shift=            0.000000            0.000000            0.000000
 Box      1 Number                   0 centers from      1 to      2:
 After GenITR:
 ITRead=  0  0
 MicOpt= -1 -1
 ITRead=  0  0
 MicOpt= -1 -1
 NAtoms=      2 NQM=        2 NQMF=       0 NMMI=      0 NMMIF=      0
                NMic=       0 NMicF=      0.
                    Isotopes and Nuclear Properties:
 (Nuclear quadrupole moments (NQMom) in fm**2, nuclear magnetic moments (NMagM)
  in nuclear magnetons)

  Atom         1           2
 IAtWgt=          16          19
 AtmWgt=  15.9949146  18.9984033
 NucSpn=           0           1
 AtZEff=  -0.0000000  -0.0000000
 NQMom=    0.0000000   0.0000000
 NMagM=    0.0000000   2.6288670
 AtZNuc=   8.0000000   9.0000000
 No MM parameters found.
 Leave Link  101 at Sat Apr 17 20:25:33 2021, MaxMem=   104857600 cpu:               5.3 elap:               0.1
 (Enter /s/ls4/users/knvvv/bin/g16sse/l202.exe)
                          Input orientation:                          
 ---------------------------------------------------------------------
 Center     Atomic      Atomic             Coordinates (Angstroms)
 Number     Number       Type             X           Y           Z
 ---------------------------------------------------------------------
      1          8           0        0.000000    0.000000    0.000000
      2          9           0        0.000000    0.000000    1.353002
 ---------------------------------------------------------------------
 Stoichiometry    FO(2)
 Framework group  C*V[C*(OF)]
 Deg. of freedom     1
 Full point group                 C*V     NOp   4
 Largest Abelian subgroup         C2V     NOp   4
 Largest concise Abelian subgroup C1      NOp   1
                         Standard orientation:                         
 ---------------------------------------------------------------------
 Center     Atomic      Atomic             Coordinates (Angstroms)
 Number     Number       Type             X           Y           Z
 ---------------------------------------------------------------------
      1          8           0        0.000000    0.000000   -0.716295
      2          9           0        0.000000    0.000000    0.636707
 ---------------------------------------------------------------------
 Rotational constants (GHZ):           0.0000000          31.7911574          31.7911574
 Leave Link  202 at Sat Apr 17 20:25:33 2021, MaxMem=   104857600 cpu:               6.0 elap:               0.1
 (Enter /s/ls4/users/knvvv/bin/g16sse/l301.exe)
 General basis read from cards:  (5D, 7F)
 Centers:       1
 S 8 1.00
     Exponent=  1.1650646908D+05 Coefficients=  4.0383857939D-05
     Exponent=  1.7504349724D+04 Coefficients=  3.1255139004D-04
     Exponent=  3.9934513230D+03 Coefficients=  1.6341473495D-03
     Exponent=  1.1330063186D+03 Coefficients=  6.8283224757D-03
     Exponent=  3.6999569594D+02 Coefficients=  2.4124410221D-02
     Exponent=  1.3362074349D+02 Coefficients=  7.2730206154D-02
     Exponent=  5.2035643649D+01 Coefficients=  1.7934429892D-01
     Exponent=  2.1461939313D+01 Coefficients=  3.3059588895D-01
 S 2 1.00
     Exponent=  8.9835051252D+01 Coefficients=  9.6468652996D-02
     Exponent=  2.6428010844D+01 Coefficients=  9.4117481120D-01
 S 1 1.00
     Exponent=  9.2822824649D+00 Coefficients=  1.0000000000D+00
 S 1 1.00
     Exponent=  4.0947728533D+00 Coefficients=  1.0000000000D+00
 S 1 1.00
     Exponent=  1.3255349078D+00 Coefficients=  1.0000000000D+00
 S 1 1.00
     Exponent=  5.1877230787D-01 Coefficients=  1.0000000000D+00
 S 1 1.00
     Exponent=  1.9772676454D-01 Coefficients=  1.0000000000D+00
 S 1 1.00
     Exponent=  6.9638535104D-02 Coefficients=  1.0000000000D+00
 P 5 1.00
     Exponent=  1.9115255810D+02 Coefficients=  2.5115697705D-03
     Exponent=  4.5233356739D+01 Coefficients=  2.0039240864D-02
     Exponent=  1.4353465922D+01 Coefficients=  9.3609064762D-02
     Exponent=  5.2422371832D+00 Coefficients=  3.0618127124D-01
     Exponent=  2.0792418599D+00 Coefficients=  6.7810501439D-01
 P 1 1.00
     Exponent=  8.4282371424D-01 Coefficients=  1.0000000000D+00
 P 1 1.00
     Exponent=  3.3617694891D-01 Coefficients=  1.0000000000D+00
 P 1 1.00
     Exponent=  1.2863997974D-01 Coefficients=  1.0000000000D+00
 P 1 1.00
     Exponent=  4.3598162776D-02 Coefficients=  1.0000000000D+00
 D 1 1.00
     Exponent=  3.7750000000D+00 Coefficients=  1.0000000000D+00
 D 1 1.00
     Exponent=  1.3000000000D+00 Coefficients=  1.0000000000D+00
 D 1 1.00
     Exponent=  4.4400000000D-01 Coefficients=  1.0000000000D+00
 D 1 1.00
     Exponent=  1.2546378695D-01 Coefficients=  1.0000000000D+00
 F 1 1.00
     Exponent=  2.6660000000D+00 Coefficients=  1.0000000000D+00
 F 1 1.00
     Exponent=  8.5900000000D-01 Coefficients=  1.0000000000D+00
 G 1 1.00
     Exponent=  1.8460000000D+00 Coefficients=  1.0000000000D+00
 ****
 Centers:       2
 S 8 1.00
     Exponent=  1.3253597345D+05 Coefficients=  4.7387482743D-05
     Exponent=  1.9758112588D+04 Coefficients=  3.7070120897D-04
     Exponent=  4.4851996947D+03 Coefficients=  1.9450784713D-03
     Exponent=  1.2738151020D+03 Coefficients=  8.0573291994D-03
     Exponent=  4.1893831236D+02 Coefficients=  2.7992880781D-02
     Exponent=  1.5255721985D+02 Coefficients=  8.2735120175D-02
     Exponent=  5.9821524823D+01 Coefficients=  1.9854169012D-01
     Exponent=  2.4819076932D+01 Coefficients=  3.4860632233D-01
 S 2 1.00
     Exponent=  1.0074446673D+02 Coefficients=  1.0505068816D-01
     Exponent=  3.0103728290D+01 Coefficients=  9.4068472434D-01
 S 1 1.00
     Exponent=  1.0814283272D+01 Coefficients=  1.0000000000D+00
 S 1 1.00
     Exponent=  4.8172886770D+00 Coefficients=  1.0000000000D+00
 S 1 1.00
     Exponent=  1.6559334213D+00 Coefficients=  1.0000000000D+00
 S 1 1.00
     Exponent=  6.4893519582D-01 Coefficients=  1.0000000000D+00
 S 1 1.00
     Exponent=  2.4778104545D-01 Coefficients=  1.0000000000D+00
 S 1 1.00
     Exponent=  8.7626236800D-02 Coefficients=  1.0000000000D+00
 P 5 1.00
     Exponent=  2.4096654114D+02 Coefficients=  3.0389933451D-03
     Exponent=  5.7020699781D+01 Coefficients=  2.4357738582D-02
     Exponent=  1.8126952120D+01 Coefficients=  1.1442925768D-01
     Exponent=  6.6457404621D+00 Coefficients=  3.7064659853D-01
     Exponent=  2.6375722892D+00 Coefficients=  7.9791551766D-01
 P 1 1.00
     Exponent=  1.0638217200D+00 Coefficients=  1.0000000000D+00
 P 1 1.00
     Exponent=  4.1932562750D-01 Coefficients=  1.0000000000D+00
 P 1 1.00
     Exponent=  1.5747588299D-01 Coefficients=  1.0000000000D+00
 P 1 1.00
     Exponent=  4.6772400332D-02 Coefficients=  1.0000000000D+00
 D 1 1.00
     Exponent=  5.0140000000D+00 Coefficients=  1.0000000000D+00
 D 1 1.00
     Exponent=  1.7250000000D+00 Coefficients=  1.0000000000D+00
 D 1 1.00
     Exponent=  5.8600000000D-01 Coefficients=  1.0000000000D+00
 D 1 1.00
     Exponent=  1.5967986245D-01 Coefficients=  1.0000000000D+00
 F 1 1.00
     Exponent=  3.5620000000D+00 Coefficients=  1.0000000000D+00
 F 1 1.00
     Exponent=  1.1480000000D+00 Coefficients=  1.0000000000D+00
 G 1 1.00
     Exponent=  2.3760000000D+00 Coefficients=  1.0000000000D+00
 ****
 Ernie: Thresh=  0.10000D-02 Tol=  0.10000D-05 Strict=F.
 There are    74 symmetry adapted cartesian basis functions of A1  symmetry.
 There are    18 symmetry adapted cartesian basis functions of A2  symmetry.
 There are    36 symmetry adapted cartesian basis functions of B1  symmetry.
 There are    36 symmetry adapted cartesian basis functions of B2  symmetry.
 There are    56 symmetry adapted basis functions of A1  symmetry.
 There are    16 symmetry adapted basis functions of A2  symmetry.
 There are    30 symmetry adapted basis functions of B1  symmetry.
 There are    30 symmetry adapted basis functions of B2  symmetry.
   132 basis functions,   204 primitive gaussians,   164 cartesian basis functions
     9 alpha electrons        8 beta electrons
       nuclear repulsion energy        28.1601622222 Hartrees.
 IExCor= 4336 DFT=T Ex+Corr=M062X ExCW=0 ScaHFX=  0.540000
 ScaDFX=  1.000000  1.000000  1.000000  1.000000 ScalE2=  1.000000  1.000000
 IRadAn=      5 IRanWt=     -1 IRanGd=            0 ICorTp=0 IEmpDi=  4
 NAtoms=    2 NActive=    2 NUniq=    2 SFac= 1.00D+00 NAtFMM=   60 NAOKFM=F Big=F
 Integral buffers will be    131072 words long.
 Raffenetti 2 integral format.
 Two-electron integral symmetry is turned on.
 Leave Link  301 at Sat Apr 17 20:25:33 2021, MaxMem=   104857600 cpu:               7.7 elap:               0.2
 (Enter /s/ls4/users/knvvv/bin/g16sse/l302.exe)
 NPDir=0 NMtPBC=     1 NCelOv=     1 NCel=       1 NClECP=     1 NCelD=      1
         NCelK=      1 NCelE2=     1 NClLst=     1 CellRange=     0.0.
 One-electron integrals computed using PRISM.
 One-electron integral symmetry used in STVInt
 PrsmSu:  requested number of processors reduced to:   4 ShMem   1 Linda.
 PrsmSu:  requested number of processors reduced to:  21 ShMem   1 Linda.
 NBasis=   132 RedAO= T EigKep=  3.44D-04  NBF=    56    16    30    30
 NBsUse=   132 1.00D-06 EigRej= -1.00D+00 NBFU=    56    16    30    30
 Precomputing XC quadrature grid using
 IXCGrd= 4 IRadAn=           5 IRanWt=          -1 IRanGd=           0 AccXCQ= 0.00D+00.
 Generated NRdTot=       0 NPtTot=           0 NUsed=           0 NTot=          32
 NSgBfM=   164   163   163   164   164 MxSgAt=     2 MxSgA2=     2.
 Leave Link  302 at Sat Apr 17 20:25:38 2021, MaxMem=   104857600 cpu:             202.5 elap:               4.4
 (Enter /s/ls4/users/knvvv/bin/g16sse/l303.exe)
 DipDrv:  MaxL=1.
 Leave Link  303 at Sat Apr 17 20:25:39 2021, MaxMem=   104857600 cpu:              29.5 elap:               0.6
 (Enter /s/ls4/users/knvvv/bin/g16sse/l401.exe)
 SCF N**3 symmetry information disabled.
 ExpMin= 4.36D-02 ExpMax= 1.33D+05 ExpMxC= 1.27D+03 IAcc=3 IRadAn=         5 AccDes= 0.00D+00
 Harris functional with IExCor= 1009 and IRadAn=       5 diagonalized for initial guess.
 HarFok:  IExCor= 1009 AccDes= 0.00D+00 IRadAn=         5 IDoV= 1 UseB2=F ITyADJ=14
 ICtDFT=  3500011 ScaDFX=  1.000000  1.000000  1.000000  1.000000
 FoFCou: FMM=F IPFlag=           0 FMFlag=      100000 FMFlg1=           0
         NFxFlg=           0 DoJE=T BraDBF=F KetDBF=T FulRan=T
         wScrn=  0.000000 ICntrl=       500 IOpCl=  0 I1Cent=   200000004 NGrid=           0
         NMat0=    1 NMatS0=      1 NMatT0=    0 NMatD0=    1 NMtDS0=    0 NMtDT0=    0
 Petite list used in FoFCou.
 CoulSu:  requested number of processors reduced to:  21 ShMem   1 Linda.
 CoulSu:  requested number of processors reduced to:  21 ShMem   1 Linda.
 CoulSu:  requested number of processors reduced to:  21 ShMem   1 Linda.
 CoulSu:  requested number of processors reduced to:  21 ShMem   1 Linda.
 Harris En= -174.783388970498    
 JPrj=0 DoOrth=F DoCkMO=F.
 Initial guess orbital symmetries:
 Alpha Orbitals:
       Occupied  (SG) (SG) (SG) (SG) (SG) (PI) (PI) (PI) (PI)
       Virtual   (SG) (SG) (PI) (PI) (SG) (SG) (PI) (PI) (SG) (DLTA)
                 (DLTA) (SG) (PI) (PI) (PI) (PI) (SG) (PI) (PI)
                 (DLTA) (DLTA) (SG) (PI) (PI) (SG) (SG) (DLTA)
                 (DLTA) (PI) (PI) (SG) (SG) (PI) (PI) (DLTA) (DLTA)
                 (PI) (PI) (SG) (SG) (PI) (PI) (SG) (DLTA) (DLTA)
                 (PHI) (PHI) (SG) (PI) (PI) (SG) (DLTA) (DLTA)
                 (PI) (PI) (PHI) (PHI) (SG) (DLTA) (DLTA) (SG)
                 (SG) (PI) (PI) (PI) (PI) (DLTA) (DLTA) (SG) (PI)
                 (PI) (PI) (PI) (SG) (SG) (PHI) (PHI) (?A) (?A)
                 (DLTA) (DLTA) (PI) (PI) (SG) (PHI) (PHI) (DLTA)
                 (DLTA) (PI) (PI) (?A) (?A) (PHI) (PHI) (SG) (DLTA)
                 (DLTA) (SG) (PI) (PI) (DLTA) (DLTA) (PI) (PI)
                 (SG) (SG) (PHI) (PHI) (DLTA) (DLTA) (SG) (PI)
                 (PI) (DLTA) (DLTA) (PI) (PI) (SG) (SG) (SG) (SG)
                 (SG) (SG)
 Beta  Orbitals:
       Occupied  (SG) (SG) (SG) (SG) (SG) (PI) (PI) (PI)
       Virtual   (PI) (SG) (SG) (PI) (PI) (SG) (SG) (PI) (PI) (SG)
                 (DLTA) (DLTA) (SG) (PI) (PI) (PI) (PI) (SG) (PI)
                 (PI) (DLTA) (DLTA) (SG) (PI) (PI) (SG) (SG) (DLTA)
                 (DLTA) (PI) (PI) (SG) (SG) (PI) (PI) (DLTA) (DLTA)
                 (PI) (PI) (SG) (SG) (PI) (PI) (SG) (DLTA) (DLTA)
                 (PHI) (PHI) (SG) (PI) (PI) (SG) (DLTA) (DLTA)
                 (PI) (PI) (PHI) (PHI) (SG) (DLTA) (DLTA) (SG)
                 (SG) (PI) (PI) (PI) (PI) (DLTA) (DLTA) (SG) (PI)
                 (PI) (PI) (PI) (SG) (SG) (PHI) (PHI) (?A) (?A)
                 (DLTA) (DLTA) (PI) (PI) (SG) (PHI) (PHI) (DLTA)
                 (DLTA) (PI) (PI) (?A) (?A) (PHI) (PHI) (SG) (DLTA)
                 (DLTA) (SG) (PI) (PI) (DLTA) (DLTA) (PI) (PI)
                 (SG) (SG) (PHI) (PHI) (DLTA) (DLTA) (SG) (PI)
                 (PI) (DLTA) (DLTA) (PI) (PI) (SG) (SG) (SG) (SG)
                 (SG) (SG)
 Initial guess <Sx>= 0.0000 <Sy>= 0.0000 <Sz>= 0.5000 <S**2>= 0.7500 S= 0.5000
 Leave Link  401 at Sat Apr 17 20:25:41 2021, MaxMem=   104857600 cpu:             119.6 elap:               2.8
 (Enter /s/ls4/users/knvvv/bin/g16sse/l502.exe)
 Keep R1 and R2 ints in memory in symmetry-blocked form, NReq=92818333.
 FoFCou: FMM=F IPFlag=           0 FMFlag=           0 FMFlg1=           0
         NFxFlg=           0 DoJE=F BraDBF=F KetDBF=F FulRan=T
         wScrn=  0.000000 ICntrl=       600 IOpCl=  0 I1Cent=           0 NGrid=           0
         NMat0=    1 NMatS0=   8778 NMatT0=    0 NMatD0=    1 NMtDS0=    0 NMtDT0=    0
 Petite list used in FoFCou.
 CoulSu:  requested number of processors reduced to:  14 ShMem   1 Linda.
 UHF open shell SCF:
 Using DIIS extrapolation, IDIIS=  1040.
 NGot=   104857600 LenX=    85119536 LenY=    85092199
 Requested convergence on RMS density matrix=1.00D-08 within 128 cycles.
 Requested convergence on MAX density matrix=1.00D-06.
 Requested convergence on             energy=1.00D-06.
 No special actions if energy rises.

 Cycle   1  Pass 1  IDiag  1:
 E= -174.867961246250    
 DIIS: error= 3.40D-02 at cycle   1 NSaved=   1.
 NSaved= 1 IEnMin= 1 EnMin= -174.867961246250     IErMin= 1 ErrMin= 3.40D-02
 ErrMax= 3.40D-02  0.00D+00 EMaxC= 1.00D-01 BMatC= 3.55D-01 BMatP= 3.55D-01
 IDIUse=3 WtCom= 6.60D-01 WtEn= 3.40D-01
 Coeff-Com:  0.100D+01
 Coeff-En:   0.100D+01
 Coeff:      0.100D+01
 Gap=     0.487 Goal=   None    Shift=    0.000
 Gap=     0.269 Goal=   None    Shift=    0.000
 GapD=    0.269 DampG=1.000 DampE=0.500 DampFc=0.5000 IDamp=-1.
 Damping current iteration by 5.00D-01
 RMSDP=8.67D-04 MaxDP=1.86D-02              OVMax= 1.23D-01

 Cycle   2  Pass 1  IDiag  1:
 E= -174.878489604952     Delta-E=       -0.010528358703 Rises=F Damp=T
 DIIS: error= 1.62D-02 at cycle   2 NSaved=   2.
 NSaved= 2 IEnMin= 2 EnMin= -174.878489604952     IErMin= 2 ErrMin= 1.62D-02
 ErrMax= 1.62D-02  0.00D+00 EMaxC= 1.00D-01 BMatC= 8.20D-02 BMatP= 3.55D-01
 IDIUse=3 WtCom= 8.38D-01 WtEn= 1.62D-01
 Coeff-Com: -0.453D+00 0.145D+01
 Coeff-En:   0.000D+00 0.100D+01
 Coeff:     -0.379D+00 0.138D+01
 Gap=     0.471 Goal=   None    Shift=    0.000
 Gap=     0.282 Goal=   None    Shift=    0.000
 RMSDP=5.21D-04 MaxDP=1.31D-02 DE=-1.05D-02 OVMax= 7.30D-02

 Cycle   3  Pass 1  IDiag  1:
 E= -174.883339266882     Delta-E=       -0.004849661930 Rises=F Damp=F
 DIIS: error= 1.80D-02 at cycle   3 NSaved=   3.
 NSaved= 3 IEnMin= 3 EnMin= -174.883339266882     IErMin= 2 ErrMin= 1.62D-02
 ErrMax= 1.80D-02  0.00D+00 EMaxC= 1.00D-01 BMatC= 6.15D-02 BMatP= 8.20D-02
 IDIUse=3 WtCom= 8.20D-01 WtEn= 1.80D-01
 Coeff-Com: -0.411D+00 0.879D+00 0.532D+00
 Coeff-En:   0.000D+00 0.185D+00 0.815D+00
 Coeff:     -0.337D+00 0.754D+00 0.583D+00
 Gap=     0.455 Goal=   None    Shift=    0.000
 Gap=     0.283 Goal=   None    Shift=    0.000
 RMSDP=3.65D-04 MaxDP=1.19D-02 DE=-4.85D-03 OVMax= 6.53D-02

 Cycle   4  Pass 1  IDiag  1:
 E= -174.891955965192     Delta-E=       -0.008616698310 Rises=F Damp=F
 DIIS: error= 5.53D-03 at cycle   4 NSaved=   4.
 NSaved= 4 IEnMin= 4 EnMin= -174.891955965192     IErMin= 4 ErrMin= 5.53D-03
 ErrMax= 5.53D-03  0.00D+00 EMaxC= 1.00D-01 BMatC= 7.65D-03 BMatP= 6.15D-02
 IDIUse=3 WtCom= 9.45D-01 WtEn= 5.53D-02
 Coeff-Com: -0.751D-01 0.135D+00 0.298D+00 0.642D+00
 Coeff-En:   0.000D+00 0.000D+00 0.669D-01 0.933D+00
 Coeff:     -0.709D-01 0.127D+00 0.285D+00 0.658D+00
 Gap=     0.457 Goal=   None    Shift=    0.000
 Gap=     0.283 Goal=   None    Shift=    0.000
 RMSDP=1.12D-04 MaxDP=3.27D-03 DE=-8.62D-03 OVMax= 1.52D-02

 Cycle   5  Pass 1  IDiag  1:
 E= -174.893233300126     Delta-E=       -0.001277334934 Rises=F Damp=F
 DIIS: error= 1.95D-03 at cycle   5 NSaved=   5.
 NSaved= 5 IEnMin= 5 EnMin= -174.893233300126     IErMin= 5 ErrMin= 1.95D-03
 ErrMax= 1.95D-03  0.00D+00 EMaxC= 1.00D-01 BMatC= 1.89D-04 BMatP= 7.65D-03
 IDIUse=3 WtCom= 9.80D-01 WtEn= 1.95D-02
 Coeff-Com:  0.605D-01-0.121D+00-0.135D+00-0.212D+00 0.141D+01
 Coeff-En:   0.000D+00 0.000D+00 0.000D+00 0.000D+00 0.100D+01
 Coeff:      0.593D-01-0.118D+00-0.132D+00-0.208D+00 0.140D+01
 Gap=     0.456 Goal=   None    Shift=    0.000
 Gap=     0.286 Goal=   None    Shift=    0.000
 RMSDP=7.76D-05 MaxDP=2.75D-03 DE=-1.28D-03 OVMax= 1.97D-02

 Cycle   6  Pass 1  IDiag  1:
 E= -174.893470817106     Delta-E=       -0.000237516980 Rises=F Damp=F
 DIIS: error= 6.92D-04 at cycle   6 NSaved=   6.
 NSaved= 6 IEnMin= 6 EnMin= -174.893470817106     IErMin= 6 ErrMin= 6.92D-04
 ErrMax= 6.92D-04  0.00D+00 EMaxC= 1.00D-01 BMatC= 6.06D-05 BMatP= 1.89D-04
 IDIUse=3 WtCom= 9.93D-01 WtEn= 6.92D-03
 Coeff-Com:  0.214D-01-0.378D-01-0.814D-01-0.219D+00 0.206D+00 0.111D+01
 Coeff-En:   0.000D+00 0.000D+00 0.000D+00 0.000D+00 0.000D+00 0.100D+01
 Coeff:      0.212D-01-0.376D-01-0.809D-01-0.218D+00 0.205D+00 0.111D+01
 Gap=     0.457 Goal=   None    Shift=    0.000
 Gap=     0.288 Goal=   None    Shift=    0.000
 RMSDP=4.31D-05 MaxDP=1.69D-03 DE=-2.38D-04 OVMax= 1.03D-02

 Cycle   7  Pass 1  IDiag  1:
 E= -174.893528476291     Delta-E=       -0.000057659185 Rises=F Damp=F
 DIIS: error= 2.49D-04 at cycle   7 NSaved=   7.
 NSaved= 7 IEnMin= 7 EnMin= -174.893528476291     IErMin= 7 ErrMin= 2.49D-04
 ErrMax= 2.49D-04  0.00D+00 EMaxC= 1.00D-01 BMatC= 5.50D-06 BMatP= 6.06D-05
 IDIUse=3 WtCom= 9.98D-01 WtEn= 2.49D-03
 Coeff-Com: -0.173D-01 0.345D-01 0.434D-01 0.809D-01-0.327D+00-0.169D+00
 Coeff-Com:  0.135D+01
 Coeff-En:   0.000D+00 0.000D+00 0.000D+00 0.000D+00 0.000D+00 0.000D+00
 Coeff-En:   0.100D+01
 Coeff:     -0.173D-01 0.344D-01 0.433D-01 0.807D-01-0.326D+00-0.169D+00
 Coeff:      0.135D+01
 Gap=     0.457 Goal=   None    Shift=    0.000
 Gap=     0.288 Goal=   None    Shift=    0.000
 RMSDP=1.71D-05 MaxDP=7.04D-04 DE=-5.77D-05 OVMax= 4.11D-03

 Cycle   8  Pass 1  IDiag  1:
 E= -174.893534540084     Delta-E=       -0.000006063793 Rises=F Damp=F
 DIIS: error= 4.56D-05 at cycle   8 NSaved=   8.
 NSaved= 8 IEnMin= 8 EnMin= -174.893534540084     IErMin= 8 ErrMin= 4.56D-05
 ErrMax= 4.56D-05  0.00D+00 EMaxC= 1.00D-01 BMatC= 2.20D-07 BMatP= 5.50D-06
 IDIUse=1 WtCom= 1.00D+00 WtEn= 0.00D+00
 Coeff-Com:  0.219D-02-0.459D-02-0.380D-02-0.768D-02 0.428D-01-0.900D-02
 Coeff-Com: -0.213D+00 0.119D+01
 Coeff:      0.219D-02-0.459D-02-0.380D-02-0.768D-02 0.428D-01-0.900D-02
 Coeff:     -0.213D+00 0.119D+01
 Gap=     0.457 Goal=   None    Shift=    0.000
 Gap=     0.288 Goal=   None    Shift=    0.000
 RMSDP=2.22D-06 MaxDP=7.94D-05 DE=-6.06D-06 OVMax= 3.85D-04

 Cycle   9  Pass 1  IDiag  1:
 E= -174.893534678909     Delta-E=       -0.000000138825 Rises=F Damp=F
 DIIS: error= 2.11D-05 at cycle   9 NSaved=   9.
 NSaved= 9 IEnMin= 9 EnMin= -174.893534678909     IErMin= 9 ErrMin= 2.11D-05
 ErrMax= 2.11D-05  0.00D+00 EMaxC= 1.00D-01 BMatC= 3.06D-08 BMatP= 2.20D-07
 IDIUse=1 WtCom= 1.00D+00 WtEn= 0.00D+00
 Coeff-Com:  0.243D-03-0.400D-03-0.130D-02-0.851D-03 0.620D-02 0.111D-01
 Coeff-Com: -0.114D-01-0.447D+00 0.144D+01
 Coeff:      0.243D-03-0.400D-03-0.130D-02-0.851D-03 0.620D-02 0.111D-01
 Coeff:     -0.114D-01-0.447D+00 0.144D+01
 Gap=     0.457 Goal=   None    Shift=    0.000
 Gap=     0.288 Goal=   None    Shift=    0.000
 RMSDP=9.25D-07 MaxDP=3.36D-05 DE=-1.39D-07 OVMax= 1.69D-04

 Cycle  10  Pass 1  IDiag  1:
 E= -174.893534706823     Delta-E=       -0.000000027914 Rises=F Damp=F
 DIIS: error= 6.07D-06 at cycle  10 NSaved=  10.
 NSaved=10 IEnMin=10 EnMin= -174.893534706823     IErMin=10 ErrMin= 6.07D-06
 ErrMax= 6.07D-06  0.00D+00 EMaxC= 1.00D-01 BMatC= 3.53D-09 BMatP= 3.06D-08
 IDIUse=1 WtCom= 1.00D+00 WtEn= 0.00D+00
 Coeff-Com: -0.158D-03 0.316D-03 0.576D-03 0.465D-03-0.621D-02-0.165D-02
 Coeff-Com:  0.251D-01 0.260D-01-0.633D+00 0.159D+01
 Coeff:     -0.158D-03 0.316D-03 0.576D-03 0.465D-03-0.621D-02-0.165D-02
 Coeff:      0.251D-01 0.260D-01-0.633D+00 0.159D+01
 Gap=     0.457 Goal=   None    Shift=    0.000
 Gap=     0.288 Goal=   None    Shift=    0.000
 RMSDP=4.60D-07 MaxDP=1.58D-05 DE=-2.79D-08 OVMax= 8.00D-05

 Cycle  11  Pass 1  IDiag  1:
 E= -174.893534711164     Delta-E=       -0.000000004342 Rises=F Damp=F
 DIIS: error= 7.40D-07 at cycle  11 NSaved=  11.
 NSaved=11 IEnMin=11 EnMin= -174.893534711164     IErMin=11 ErrMin= 7.40D-07
 ErrMax= 7.40D-07  0.00D+00 EMaxC= 1.00D-01 BMatC= 1.18D-10 BMatP= 3.53D-09
 IDIUse=1 WtCom= 1.00D+00 WtEn= 0.00D+00
 Coeff-Com:  0.122D-04-0.302D-04 0.754D-05 0.383D-04 0.237D-03-0.458D-03
 Coeff-Com: -0.115D-02 0.260D-01-0.460D-01-0.115D+00 0.114D+01
 Coeff:      0.122D-04-0.302D-04 0.754D-05 0.383D-04 0.237D-03-0.458D-03
 Coeff:     -0.115D-02 0.260D-01-0.460D-01-0.115D+00 0.114D+01
 Gap=     0.457 Goal=   None    Shift=    0.000
 Gap=     0.288 Goal=   None    Shift=    0.000
 RMSDP=6.04D-08 MaxDP=2.00D-06 DE=-4.34D-09 OVMax= 9.89D-06

 Cycle  12  Pass 1  IDiag  1:
 E= -174.893534711248     Delta-E=       -0.000000000084 Rises=F Damp=F
 DIIS: error= 1.69D-07 at cycle  12 NSaved=  12.
 NSaved=12 IEnMin=12 EnMin= -174.893534711248     IErMin=12 ErrMin= 1.69D-07
 ErrMax= 1.69D-07  0.00D+00 EMaxC= 1.00D-01 BMatC= 6.31D-12 BMatP= 1.18D-10
 IDIUse=1 WtCom= 1.00D+00 WtEn= 0.00D+00
 Coeff-Com: -0.357D-05 0.770D-05-0.667D-05 0.315D-04 0.119D-03 0.552D-05
 Coeff-Com: -0.399D-03-0.416D-02 0.310D-01-0.568D-01-0.113D+00 0.114D+01
 Coeff:     -0.357D-05 0.770D-05-0.667D-05 0.315D-04 0.119D-03 0.552D-05
 Coeff:     -0.399D-03-0.416D-02 0.310D-01-0.568D-01-0.113D+00 0.114D+01
 Gap=     0.457 Goal=   None    Shift=    0.000
 Gap=     0.288 Goal=   None    Shift=    0.000
 RMSDP=9.60D-09 MaxDP=2.45D-07 DE=-8.36D-11 OVMax= 1.46D-06

 SCF Done:  E(UM062X) =  -174.893534711     A.U. after   12 cycles
            NFock= 12  Conv=0.96D-08     -V/T= 2.0029
 <Sx>= 0.0000 <Sy>= 0.0000 <Sz>= 0.5000 <S**2>= 0.7550 S= 0.5025
 <L.S>= 0.000000000000E+00
 KE= 1.743796060300D+02 PE=-4.725145621185D+02 EE= 9.508125915500D+01
 Annihilation of the first spin contaminant:
 S**2 before annihilation     0.7550,   after     0.7500
 Leave Link  502 at Sat Apr 17 20:27:23 2021, MaxMem=   104857600 cpu:            4777.3 elap:             102.2
 (Enter /s/ls4/users/knvvv/bin/g16sse/l601.exe)
 Copying SCF densities to generalized density rwf, IOpCl= 1 IROHF=0.

 **********************************************************************

            Population analysis using the SCF density.

 **********************************************************************

 Orbital symmetries:
 Alpha Orbitals:
       Occupied  (SG) (SG) (SG) (SG) (?A) (SG) (?A) (?A) (?A)
       Virtual   (SG) (SG) (PI) (PI) (SG) (PI) (PI) (SG) (SG) (DLTA)
                 (DLTA) (SG) (?A) (?A) (?A) (?A) (SG) (PI) (?B)
                 (?B) (PI) (?B) (PI) (PI) (SG) (SG) (?C) (?C) (PI)
                 (PI) (?C) (?C) (PI) (PI) (DLTA) (DLTA) (PI) (SG)
                 (PI) (SG) (PI) (PI) (SG) (DLTA) (DLTA) (PHI) (PHI)
                 (SG) (PI) (PI) (?C) (?C) (?C) (PI) (PI) (?C) (PHI)
                 (PHI) (DLTA) (DLTA) (SG) (SG) (?A) (?A) (?A) (?A)
                 (DLTA) (DLTA) (SG) (PI) (PI) (PI) (PI) (SG) (SG)
                 (?D) (?D) (?E) (?E) (?E) (?E) (?D) (?D) (?E) (?D)
                 (?D) (?F) (?F) (?D) (?D) (?G) (?G) (PHI) (PHI)
                 (?F) (?F) (?F) (?F) (PI) (PI) (?F) (?F) (PI) (PI)
                 (SG) (?F) (PHI) (PHI) (DLTA) (DLTA) (SG) (PI)
                 (PI) (DLTA) (DLTA) (PI) (PI) (SG) (SG) (SG) (SG)
                 (SG) (SG)
 Beta  Orbitals:
       Occupied  (SG) (SG) (SG) (SG) (SG) (?A) (?A) (?A)
       Virtual   (?A) (SG) (?B) (?A) (?A) (SG) (?A) (?A) (?B) (SG)
                 (?B) (?B) (?A) (?B) (?A) (?A) (?A) (?B) (?B) (?B)
                 (PI) (PI) (?B) (PI) (PI) (SG) (SG) (?C) (?C) (PI)
                 (PI) (?C) (SG) (PI) (PI) (DLTA) (DLTA) (SG) (PI)
                 (PI) (SG) (PI) (PI) (SG) (DLTA) (DLTA) (PHI) (PHI)
                 (SG) (PI) (PI) (SG) (DLTA) (DLTA) (PI) (PI) (SG)
                 (PHI) (PHI) (DLTA) (DLTA) (SG) (SG) (?D) (?D)
                 (?D) (?D) (DLTA) (DLTA) (SG) (PI) (PI) (PI) (PI)
                 (SG) (SG) (PHI) (PHI) (?E) (?E) (?E) (?E) (PI)
                 (PI) (SG) (?F) (?G) (?G) (?F) (?G) (?G) (?G) (?G)
                 (?H) (?H) (?F) (?F) (?F) (?F) (PI) (PI) (?F) (?F)
                 (PI) (PI) (SG) (?F) (PHI) (PHI) (DLTA) (DLTA)
                 (SG) (PI) (PI) (DLTA) (DLTA) (PI) (PI) (SG) (SG)
                 (SG) (SG) (SG) (SG)
 Unable to determine electronic state:  an orbital has unidentified symmetry.
 Alpha  occ. eigenvalues --  -25.34748 -19.80552  -1.47656  -1.09546  -0.67023
 Alpha  occ. eigenvalues --   -0.65502  -0.64210  -0.49326  -0.44644
 Alpha virt. eigenvalues --    0.01049   0.05272   0.05667   0.06093   0.08075
 Alpha virt. eigenvalues --    0.10435   0.10723   0.11105   0.25611   0.31571
 Alpha virt. eigenvalues --    0.31589   0.39632   0.40158   0.40633   0.40820
 Alpha virt. eigenvalues --    0.40860   0.47447   0.51104   0.51224   0.51233
 Alpha virt. eigenvalues --    0.51390   0.55025   0.74911   0.75317   0.78365
 Alpha virt. eigenvalues --    0.85540   1.21453   1.21592   1.28034   1.30044
 Alpha virt. eigenvalues --    1.36252   1.41260   1.43422   1.46993   1.70695
 Alpha virt. eigenvalues --    1.70701   1.78985   1.79749   1.79852   2.01144
 Alpha virt. eigenvalues --    2.11142   2.12664   2.47203   3.05198   3.05198
 Alpha virt. eigenvalues --    3.05705   3.05748   3.29830   3.40192   3.42295
 Alpha virt. eigenvalues --    3.57801   3.87702   3.87824   4.01257   4.04457
 Alpha virt. eigenvalues --    4.14595   4.15328   4.15328   4.44667   4.44670
 Alpha virt. eigenvalues --    4.56426   4.74751   4.86664   4.90816   5.12406
 Alpha virt. eigenvalues --    5.15311   5.22314   5.22315   5.56273   5.65924
 Alpha virt. eigenvalues --    5.67315   6.37904   6.39308   6.54918   7.25403
 Alpha virt. eigenvalues --    8.67968   8.67982   8.68907   8.68911   8.72659
 Alpha virt. eigenvalues --    8.72738   8.97415   9.01178   9.37116  10.66071
 Alpha virt. eigenvalues --   10.66133  10.72143  10.72191  11.08417  11.13307
 Alpha virt. eigenvalues --   11.28442  11.28448  11.28550  11.28551  11.38783
 Alpha virt. eigenvalues --   11.53695  11.53699  11.57358  11.58056  11.63125
 Alpha virt. eigenvalues --   11.80770  11.81032  12.51235  12.54610  13.02002
 Alpha virt. eigenvalues --   13.19913  14.36721  14.36721  14.52695  14.52702
 Alpha virt. eigenvalues --   14.96107  15.19034  15.20560  15.77008  15.77012
 Alpha virt. eigenvalues --   15.91346  15.92759  16.21595  16.60687  47.38806
 Alpha virt. eigenvalues --   54.39797 250.36619 283.29072
  Beta  occ. eigenvalues --  -25.34278 -19.78767  -1.45271  -1.02714  -0.63229
  Beta  occ. eigenvalues --   -0.63103  -0.58855  -0.41598
  Beta virt. eigenvalues --   -0.12761   0.02122   0.05429   0.06046   0.06314
  Beta virt. eigenvalues --    0.09367   0.10596   0.10936   0.11098   0.25919
  Beta virt. eigenvalues --    0.30725   0.31297   0.39374   0.39582   0.40346
  Beta virt. eigenvalues --    0.40844   0.41151   0.47022   0.51079   0.51183
  Beta virt. eigenvalues --    0.51478   0.51566   0.54967   0.74485   0.75582
  Beta virt. eigenvalues --    0.78085   0.85865   1.23349   1.23361   1.29917
  Beta virt. eigenvalues --    1.30524   1.36413   1.42102   1.47981   1.48088
  Beta virt. eigenvalues --    1.71255   1.71262   1.79746   1.80011   1.80293
  Beta virt. eigenvalues --    2.01371   2.11515   2.12544   2.47189   3.05596
  Beta virt. eigenvalues --    3.05866   3.06365   3.06664   3.32403   3.41589
  Beta virt. eigenvalues --    3.42723   3.59761   3.90172   3.90893   4.02344
  Beta virt. eigenvalues --    4.04984   4.14728   4.15361   4.15363   4.44609
  Beta virt. eigenvalues --    4.44659   4.56174   4.75942   4.90449   4.91665
  Beta virt. eigenvalues --    5.15115   5.16077   5.23130   5.23225   5.57136
  Beta virt. eigenvalues --    5.66238   5.67020   6.39715   6.40138   6.54614
  Beta virt. eigenvalues --    7.26273   8.70244   8.71546   8.71709   8.73000
  Beta virt. eigenvalues --    8.74648   8.74701   8.99668   9.02214   9.37306
  Beta virt. eigenvalues --   10.77874  10.78452  10.78742  10.81346  11.13131
  Beta virt. eigenvalues --   11.19886  11.28282  11.28359  11.28740  11.28747
  Beta virt. eigenvalues --   11.40277  11.53235  11.53864  11.61624  11.62100
  Beta virt. eigenvalues --   11.68921  11.93296  11.96380  12.54164  12.58014
  Beta virt. eigenvalues --   13.02844  13.28683  14.37561  14.37650  14.51742
  Beta virt. eigenvalues --   14.51857  14.94854  15.18490  15.18549  15.78001
  Beta virt. eigenvalues --   15.78200  15.91446  15.92139  16.21115  16.59840
  Beta virt. eigenvalues --   47.47078  54.38033 250.35436 283.28411
          Condensed to atoms (all electrons):
               1          2
     1  O    7.984665  -0.019711
     2  F   -0.019711   9.054757
          Atomic-Atomic Spin Densities.
               1          2
     1  O    0.999875  -0.075423
     2  F   -0.075423   0.150972
 Mulliken charges and spin densities:
               1          2
     1  O    0.035046   0.924451
     2  F   -0.035046   0.075549
 Sum of Mulliken charges =  -0.00000   1.00000
 Mulliken charges and spin densities with hydrogens summed into heavy atoms:
               1          2
     1  O    0.035046   0.924451
     2  F   -0.035046   0.075549
 Electronic spatial extent (au):  <R**2>=             49.6856
 Charge=             -0.0000 electrons
 Dipole moment (field-independent basis, Debye):
    X=              0.0000    Y=              0.0000    Z=             -0.1027  Tot=              0.1027
 Quadrupole moment (field-independent basis, Debye-Ang):
   XX=             -9.4544   YY=            -10.4129   ZZ=             -9.7214
   XY=              0.0000   XZ=              0.0000   YZ=             -0.0000
 Traceless Quadrupole moment (field-independent basis, Debye-Ang):
   XX=              0.4085   YY=             -0.5500   ZZ=              0.1415
   XY=              0.0000   XZ=              0.0000   YZ=             -0.0000
 Octapole moment (field-independent basis, Debye-Ang**2):
  XXX=              0.0000  YYY=              0.0000  ZZZ=              1.8060  XYY=              0.0000
  XXY=             -0.0000  XXZ=              0.3621  XZZ=              0.0000  YZZ=              0.0000
  YYZ=              1.0560  XYZ=             -0.0000
 Hexadecapole moment (field-independent basis, Debye-Ang**3):
 XXXX=             -6.2231 YYYY=             -7.4618 ZZZZ=            -31.4317 XXXY=              0.0000
 XXXZ=              0.0000 YYYX=              0.0000 YYYZ=             -0.0000 ZZZX=              0.0000
 ZZZY=             -0.0000 XXYY=             -2.2819 XXZZ=             -6.5353 YYZZ=             -7.4170
 XXYZ=              0.0000 YYXZ=              0.0000 ZZXY=              0.0000
 N-N= 2.816016222224D+01 E-N=-4.725145642937D+02  KE= 1.743796060300D+02
                          Isotropic Fermi Contact Couplings
        Atom                 a.u.       MegaHertz       Gauss      10(-4) cm-1
     1  O(17)              0.13617     -82.54787     -29.45513     -27.53500
     2  F(19)              0.02878     121.09079      43.20821      40.39154
 PrsmSu:  requested number of processors reduced to:  21 ShMem   1 Linda.
 --------------------------------------------------------
       Center         ----  Spin Dipole Couplings  ----
                      3XX-RR        3YY-RR        3ZZ-RR
 --------------------------------------------------------
     1   Atom        3.895122     -1.999029     -1.896093
     2   Atom        1.406959     -0.532362     -0.874596
 --------------------------------------------------------
                        XY            XZ            YZ
 --------------------------------------------------------
     1   Atom        0.000000      0.000000      0.000000
     2   Atom        0.000000      0.000000      0.000000
 --------------------------------------------------------


 ---------------------------------------------------------------------------------
              Anisotropic Spin Dipole Couplings in Principal Axis System
 ---------------------------------------------------------------------------------

       Atom             a.u.   MegaHertz   Gauss  10(-4) cm-1        Axes

              Baa    -1.9990   144.648    51.614    48.249 -0.0000  1.0000  0.0000
     1 O(17)  Bbb    -1.8961   137.200    48.956    45.765  0.0000  0.0000  1.0000
              Bcc     3.8951  -281.848  -100.570   -94.014  1.0000  0.0000  0.0000
 
              Baa    -0.8746  -439.245  -156.733  -146.516  0.0000  0.0000  1.0000
     2 F(19)  Bbb    -0.5324  -267.366   -95.403   -89.184 -0.0000  1.0000  0.0000
              Bcc     1.4070   706.611   252.136   235.700  1.0000  0.0000  0.0000
 

 ---------------------------------------------------------------------------------

 PrsmSu:  requested number of processors reduced to:  21 ShMem   1 Linda.
 No NMR shielding tensors so no spin-rotation constants.
 Leave Link  601 at Sat Apr 17 20:27:27 2021, MaxMem=   104857600 cpu:             160.0 elap:               3.6
 (Enter /s/ls4/users/knvvv/bin/g16sse/l801.exe)
 DoSCS=F DFT=T ScalE2(SS,OS)=  1.000000  1.000000
 Range of M.O.s used for correlation:     1   132
 NBasis=   132 NAE=     9 NBE=     8 NFC=     0 NFV=     0
 NROrb=    132 NOA=     9 NOB=     8 NVA=   123 NVB=   124

 **** Warning!!: The largest alpha MO coefficient is  0.13722600D+02


 **** Warning!!: The largest beta MO coefficient is  0.13687495D+02

 Leave Link  801 at Sat Apr 17 20:27:27 2021, MaxMem=   104857600 cpu:               3.5 elap:               0.1
 (Enter /s/ls4/users/knvvv/bin/g16sse/l914.exe)
 UHF ground state
 Doing stability rather than CIS.
 Two-electron integrals replicated using symmetry.
 MDV=   104857600 DFT=T DoStab=T Mixed=T DoRPA=F DoScal=F NonHer=F
 Making orbital integer symmetry assigments:
 Orbital symmetries:
 Alpha Orbitals:
       Occupied  (SG) (SG) (SG) (SG) (?A) (SG) (?A) (?A) (?A)
       Virtual   (SG) (SG) (PI) (PI) (SG) (PI) (PI) (SG) (SG) (DLTA)
                 (DLTA) (SG) (?A) (?A) (?A) (?A) (SG) (PI) (?B)
                 (?B) (PI) (?B) (PI) (PI) (SG) (SG) (?C) (?C) (PI)
                 (PI) (?C) (?C) (PI) (PI) (DLTA) (DLTA) (PI) (SG)
                 (PI) (SG) (PI) (PI) (SG) (DLTA) (DLTA) (PHI) (PHI)
                 (SG) (PI) (PI) (?C) (?C) (?C) (PI) (PI) (?C) (PHI)
                 (PHI) (DLTA) (DLTA) (SG) (SG) (?A) (?A) (?A) (?A)
                 (DLTA) (DLTA) (SG) (PI) (PI) (PI) (PI) (SG) (SG)
                 (?D) (?D) (?E) (?E) (?E) (?E) (?D) (?D) (?E) (?D)
                 (?D) (?F) (?F) (?D) (?D) (?G) (?G) (PHI) (PHI)
                 (?F) (?F) (?F) (?F) (PI) (PI) (?F) (?F) (PI) (PI)
                 (SG) (?F) (PHI) (PHI) (DLTA) (DLTA) (SG) (PI)
                 (PI) (DLTA) (DLTA) (PI) (PI) (SG) (SG) (SG) (SG)
                 (SG) (SG)
 Beta  Orbitals:
       Occupied  (SG) (SG) (SG) (SG) (SG) (?A) (?A) (?A)
       Virtual   (?A) (SG) (?B) (?A) (?A) (SG) (?A) (?A) (?B) (SG)
                 (?B) (?B) (?A) (?B) (?A) (?A) (?A) (?B) (?B) (?B)
                 (PI) (PI) (?B) (PI) (PI) (SG) (SG) (?C) (?C) (PI)
                 (PI) (?C) (SG) (PI) (PI) (DLTA) (DLTA) (SG) (PI)
                 (PI) (SG) (PI) (PI) (SG) (DLTA) (DLTA) (PHI) (PHI)
                 (SG) (PI) (PI) (SG) (DLTA) (DLTA) (PI) (PI) (SG)
                 (PHI) (PHI) (DLTA) (DLTA) (SG) (SG) (?D) (?D)
                 (?D) (?D) (DLTA) (DLTA) (SG) (PI) (PI) (PI) (PI)
                 (SG) (SG) (PHI) (PHI) (?E) (?E) (?E) (?E) (PI)
                 (PI) (SG) (?F) (?G) (?G) (?F) (?G) (?G) (?G) (?G)
                 (?H) (?H) (?F) (?F) (?F) (?F) (PI) (PI) (?F) (?F)
                 (PI) (PI) (SG) (?F) (PHI) (PHI) (DLTA) (DLTA)
                 (SG) (PI) (PI) (DLTA) (DLTA) (PI) (PI) (SG) (SG)
                 (SG) (SG) (SG) (SG)
    12 initial guesses have been made.
 Convergence on wavefunction:    0.001000000000000
 Davidson Disk Diagonalization:  ConvIn= 1.00D-03 SkipCon=T Conv= 1.00D-03.
 Max sub-space:  2000 roots to seek:    12 dimension of matrix:         2099
 Iteration     1 Dimension    12 NMult     0 NNew     12
 Estimated number of processors is:   20
 CISAX will form     1 AO SS matrices at one time.
 NMat=     1 NSing=     1 JSym2X= 2.
 FoFJK:  IHMeth= 1 ICntrl=       0 DoSepK=F KAlg= 0 I1Cent=           0 FoldK=F
 IRaf= 990000000 NMat=       1 IRICut=       1 DoRegI=T DoRafI=F ISym2E= 2 IDoP0=0 IntGTp=1.
 FoFCou: FMM=F IPFlag=           0 FMFlag=      100000 FMFlg1=           0
         NFxFlg=           0 DoJE=F BraDBF=F KetDBF=F FulRan=T
         wScrn=  0.000000 ICntrl=         0 IOpCl=  1 I1Cent=           0 NGrid=           0
         NMat0=    1 NMatS0=      1 NMatT0=    0 NMatD0=    1 NMtDS0=    0 NMtDT0=    0
 Integrals replicated using symmetry in FoFCou.
 CoulSu:  requested number of processors reduced to:  20 ShMem   1 Linda.
 NMat=     1 NSing=     1 JSym2X= 2.
 CoulSu:  requested number of processors reduced to:  20 ShMem   1 Linda.
 NMat=     1 NSing=     1 JSym2X= 2.
 CoulSu:  requested number of processors reduced to:  20 ShMem   1 Linda.
 NMat=     1 NSing=     1 JSym2X= 2.
 CoulSu:  requested number of processors reduced to:  20 ShMem   1 Linda.
 NMat=     1 NSing=     1 JSym2X= 2.
 CoulSu:  requested number of processors reduced to:  20 ShMem   1 Linda.
 NMat=     1 NSing=     1 JSym2X= 2.
 CoulSu:  requested number of processors reduced to:  20 ShMem   1 Linda.
 NMat=     1 NSing=     1 JSym2X= 2.
 CoulSu:  requested number of processors reduced to:  20 ShMem   1 Linda.
 NMat=     1 NSing=     1 JSym2X= 2.
 CoulSu:  requested number of processors reduced to:  20 ShMem   1 Linda.
 NMat=     1 NSing=     1 JSym2X= 2.
 CoulSu:  requested number of processors reduced to:  20 ShMem   1 Linda.
 NMat=     1 NSing=     1 JSym2X= 2.
 CoulSu:  requested number of processors reduced to:  20 ShMem   1 Linda.
 NMat=     1 NSing=     1 JSym2X= 2.
 CoulSu:  requested number of processors reduced to:  20 ShMem   1 Linda.
 NMat=     1 NSing=     1 JSym2X= 2.
 CoulSu:  requested number of processors reduced to:  20 ShMem   1 Linda.
 Excitation Energies [eV] at current iteration:
 Root      1 :     0.391930608607470
 Root      2 :     6.592789832736251
 Root      3 :     7.435157761623297
 Root      4 :     7.582935610600527
 Root      5 :     8.106823114434150
 Root      6 :     8.708653229112992
 Root      7 :     9.271726995885135
 Root      8 :    10.047404745691430
 Root      9 :    10.381910483072290
 Root     10 :    10.818102288497440
 Root     11 :    10.979299407495210
 Root     12 :    11.040408966048400
 Iteration     2 Dimension    24 NMult    12 NNew     12
 Estimated number of processors is:   20
 CISAX will form     1 AO SS matrices at one time.
 NMat=     1 NSing=     1 JSym2X= 2.
 CoulSu:  requested number of processors reduced to:  20 ShMem   1 Linda.
 NMat=     1 NSing=     1 JSym2X= 2.
 CoulSu:  requested number of processors reduced to:  20 ShMem   1 Linda.
 NMat=     1 NSing=     1 JSym2X= 2.
 CoulSu:  requested number of processors reduced to:  20 ShMem   1 Linda.
 NMat=     1 NSing=     1 JSym2X= 2.
 CoulSu:  requested number of processors reduced to:  20 ShMem   1 Linda.
 NMat=     1 NSing=     1 JSym2X= 2.
 CoulSu:  requested number of processors reduced to:  20 ShMem   1 Linda.
 NMat=     1 NSing=     1 JSym2X= 2.
 CoulSu:  requested number of processors reduced to:  20 ShMem   1 Linda.
 NMat=     1 NSing=     1 JSym2X= 2.
 CoulSu:  requested number of processors reduced to:  20 ShMem   1 Linda.
 NMat=     1 NSing=     1 JSym2X= 2.
 CoulSu:  requested number of processors reduced to:  20 ShMem   1 Linda.
 NMat=     1 NSing=     1 JSym2X= 2.
 CoulSu:  requested number of processors reduced to:  20 ShMem   1 Linda.
 NMat=     1 NSing=     1 JSym2X= 2.
 CoulSu:  requested number of processors reduced to:  20 ShMem   1 Linda.
 NMat=     1 NSing=     1 JSym2X= 2.
 CoulSu:  requested number of processors reduced to:  20 ShMem   1 Linda.
 NMat=     1 NSing=     1 JSym2X= 2.
 CoulSu:  requested number of processors reduced to:  20 ShMem   1 Linda.
 Root      1 not converged, maximum delta is    0.057093025437313
 Excitation Energies [eV] at current iteration:
 Root      1 :     0.004990550974057   Change is   -0.386940057633413
 Root      2 :     4.175223178868101   Change is   -2.417566653868150
 Root      3 :     5.900349309988534   Change is   -3.371377685896602
 Root      4 :     6.583054821951055   Change is   -0.852102939672242
 Root      5 :     6.693604763848134   Change is   -2.015048465264858
 Root      6 :     6.817550388108968   Change is   -1.289272726325182
 Root      7 :     7.312343699346949   Change is   -0.270591911253578
 Root      8 :     9.738992838867294   Change is   -0.308411906824135
 Root      9 :    10.297164828917190   Change is   -0.084745654155102
 Root     10 :    10.353799170611320   Change is   -0.625500236883890
 Root     11 :    10.501858328426590   Change is   -0.316243960070856
 Root     12 :    10.792591343159310
 Iteration     3 Dimension    27 NMult    24 NNew      3
 Estimated number of processors is:   20
 CISAX will form     1 AO SS matrices at one time.
 NMat=     1 NSing=     1 JSym2X= 2.
 CoulSu:  requested number of processors reduced to:  20 ShMem   1 Linda.
 NMat=     1 NSing=     1 JSym2X= 2.
 CoulSu:  requested number of processors reduced to:  20 ShMem   1 Linda.
 NMat=     1 NSing=     1 JSym2X= 2.
 CoulSu:  requested number of processors reduced to:  20 ShMem   1 Linda.
 Root      1 not converged, maximum delta is    0.004082788178212
 Excitation Energies [eV] at current iteration:
 Root      1 :     0.000115410660483   Change is   -0.004875140313574
 Root      2 :     4.117914514011820   Change is   -0.057308664856281
 Root      3 :     5.542804287763023   Change is   -0.357545022225511
 Iteration     4 Dimension    30 NMult    27 NNew      3
 Estimated number of processors is:   20
 CISAX will form     1 AO SS matrices at one time.
 NMat=     1 NSing=     1 JSym2X= 2.
 CoulSu:  requested number of processors reduced to:  20 ShMem   1 Linda.
 NMat=     1 NSing=     1 JSym2X= 2.
 CoulSu:  requested number of processors reduced to:  20 ShMem   1 Linda.
 NMat=     1 NSing=     1 JSym2X= 2.
 CoulSu:  requested number of processors reduced to:  20 ShMem   1 Linda.
 Root      1 has converged.
 Excitation Energies [eV] at current iteration:
 Root      1 :     0.000071038468847   Change is   -0.000044372191637
 Root      2 :     4.116587484481310   Change is   -0.001327029530509
 Root      3 :     5.514128251789738   Change is   -0.028676035973285
 Convergence achieved on expansion vectors.
 ***********************************************************************
 Stability analysis using <AA,BB:AA,BB> singles matrix:
 ***********************************************************************
 1PDM for each excited state written to RWF  633
 Ground to excited state transition densities written to RWF  633

 Eigenvectors of the stability matrix:
 
 Excited state symmetry could not be determined.
 Eigenvector   1:  2.009-?Sym  Eigenvalue= 0.0000026  <S**2>=0.759
      6B ->  9B        0.12084
      8B ->  9B        0.98140
 The wavefunction is stable under the perturbations considered.
 Leave Link  914 at Sat Apr 17 20:28:09 2021, MaxMem=   104857600 cpu:            1350.6 elap:              41.4
 (Enter /s/ls4/users/knvvv/bin/g16sse/l508.exe)
 The wavefunction is already stable.
 Leave Link  508 at Sat Apr 17 20:28:09 2021, MaxMem=   104857600 cpu:               2.2 elap:               0.1
 (Enter /s/ls4/users/knvvv/bin/g16sse/l601.exe)
 Copying SCF densities to generalized density rwf, IOpCl= 1 IROHF=0.

 **********************************************************************

            Population analysis using the SCF density.

 **********************************************************************

 Orbital symmetries:
 Alpha Orbitals:
       Occupied  (SG) (SG) (SG) (SG) (?A) (SG) (?A) (?A) (?A)
       Virtual   (SG) (SG) (PI) (PI) (SG) (PI) (PI) (SG) (SG) (DLTA)
                 (DLTA) (SG) (?A) (?A) (?A) (?A) (SG) (PI) (?B)
                 (?B) (PI) (?B) (PI) (PI) (SG) (SG) (?C) (?C) (PI)
                 (PI) (?C) (?C) (PI) (PI) (DLTA) (DLTA) (PI) (SG)
                 (PI) (SG) (PI) (PI) (SG) (DLTA) (DLTA) (PHI) (PHI)
                 (SG) (PI) (PI) (?C) (?C) (?C) (PI) (PI) (?C) (PHI)
                 (PHI) (DLTA) (DLTA) (SG) (SG) (?A) (?A) (?A) (?A)
                 (DLTA) (DLTA) (SG) (PI) (PI) (PI) (PI) (SG) (SG)
                 (?D) (?D) (?E) (?E) (?E) (?E) (?D) (?D) (?E) (?D)
                 (?D) (?F) (?F) (?D) (?D) (?G) (?G) (PHI) (PHI)
                 (?F) (?F) (?F) (?F) (PI) (PI) (?F) (?F) (PI) (PI)
                 (SG) (?F) (PHI) (PHI) (DLTA) (DLTA) (SG) (PI)
                 (PI) (DLTA) (DLTA) (PI) (PI) (SG) (SG) (SG) (SG)
                 (SG) (SG)
 Beta  Orbitals:
       Occupied  (SG) (SG) (SG) (SG) (SG) (?A) (?A) (?A)
       Virtual   (?A) (SG) (?B) (?A) (?A) (SG) (?A) (?A) (?B) (SG)
                 (?B) (?B) (?A) (?B) (?A) (?A) (?A) (?B) (?B) (?B)
                 (PI) (PI) (?B) (PI) (PI) (SG) (SG) (?C) (?C) (PI)
                 (PI) (?C) (SG) (PI) (PI) (DLTA) (DLTA) (SG) (PI)
                 (PI) (SG) (PI) (PI) (SG) (DLTA) (DLTA) (PHI) (PHI)
                 (SG) (PI) (PI) (SG) (DLTA) (DLTA) (PI) (PI) (SG)
                 (PHI) (PHI) (DLTA) (DLTA) (SG) (SG) (?D) (?D)
                 (?D) (?D) (DLTA) (DLTA) (SG) (PI) (PI) (PI) (PI)
                 (SG) (SG) (PHI) (PHI) (?E) (?E) (?E) (?E) (PI)
                 (PI) (SG) (?F) (?G) (?G) (?F) (?G) (?G) (?G) (?G)
                 (?H) (?H) (?F) (?F) (?F) (?F) (PI) (PI) (?F) (?F)
                 (PI) (PI) (SG) (?F) (PHI) (PHI) (DLTA) (DLTA)
                 (SG) (PI) (PI) (DLTA) (DLTA) (PI) (PI) (SG) (SG)
                 (SG) (SG) (SG) (SG)
 Unable to determine electronic state:  an orbital has unidentified symmetry.
 Alpha  occ. eigenvalues --  -25.34748 -19.80552  -1.47656  -1.09546  -0.67023
 Alpha  occ. eigenvalues --   -0.65502  -0.64210  -0.49326  -0.44644
 Alpha virt. eigenvalues --    0.01049   0.05272   0.05667   0.06093   0.08075
 Alpha virt. eigenvalues --    0.10435   0.10723   0.11105   0.25611   0.31571
 Alpha virt. eigenvalues --    0.31589   0.39632   0.40158   0.40633   0.40820
 Alpha virt. eigenvalues --    0.40860   0.47447   0.51104   0.51224   0.51233
 Alpha virt. eigenvalues --    0.51390   0.55025   0.74911   0.75317   0.78365
 Alpha virt. eigenvalues --    0.85540   1.21453   1.21592   1.28034   1.30044
 Alpha virt. eigenvalues --    1.36252   1.41260   1.43422   1.46993   1.70695
 Alpha virt. eigenvalues --    1.70701   1.78985   1.79749   1.79852   2.01144
 Alpha virt. eigenvalues --    2.11142   2.12664   2.47203   3.05198   3.05198
 Alpha virt. eigenvalues --    3.05705   3.05748   3.29830   3.40192   3.42295
 Alpha virt. eigenvalues --    3.57801   3.87702   3.87824   4.01257   4.04457
 Alpha virt. eigenvalues --    4.14595   4.15328   4.15328   4.44667   4.44670
 Alpha virt. eigenvalues --    4.56426   4.74751   4.86664   4.90816   5.12406
 Alpha virt. eigenvalues --    5.15311   5.22314   5.22315   5.56273   5.65924
 Alpha virt. eigenvalues --    5.67315   6.37904   6.39308   6.54918   7.25403
 Alpha virt. eigenvalues --    8.67968   8.67982   8.68907   8.68911   8.72659
 Alpha virt. eigenvalues --    8.72738   8.97415   9.01178   9.37116  10.66071
 Alpha virt. eigenvalues --   10.66133  10.72143  10.72191  11.08417  11.13307
 Alpha virt. eigenvalues --   11.28442  11.28448  11.28550  11.28551  11.38783
 Alpha virt. eigenvalues --   11.53695  11.53699  11.57358  11.58056  11.63125
 Alpha virt. eigenvalues --   11.80770  11.81032  12.51235  12.54610  13.02002
 Alpha virt. eigenvalues --   13.19913  14.36721  14.36721  14.52695  14.52702
 Alpha virt. eigenvalues --   14.96107  15.19034  15.20560  15.77008  15.77012
 Alpha virt. eigenvalues --   15.91346  15.92759  16.21595  16.60687  47.38806
 Alpha virt. eigenvalues --   54.39797 250.36619 283.29072
  Beta  occ. eigenvalues --  -25.34278 -19.78767  -1.45271  -1.02714  -0.63229
  Beta  occ. eigenvalues --   -0.63103  -0.58855  -0.41598
  Beta virt. eigenvalues --   -0.12761   0.02122   0.05429   0.06046   0.06314
  Beta virt. eigenvalues --    0.09367   0.10596   0.10936   0.11098   0.25919
  Beta virt. eigenvalues --    0.30725   0.31297   0.39374   0.39582   0.40346
  Beta virt. eigenvalues --    0.40844   0.41151   0.47022   0.51079   0.51183
  Beta virt. eigenvalues --    0.51478   0.51566   0.54967   0.74485   0.75582
  Beta virt. eigenvalues --    0.78085   0.85865   1.23349   1.23361   1.29917
  Beta virt. eigenvalues --    1.30524   1.36413   1.42102   1.47981   1.48088
  Beta virt. eigenvalues --    1.71255   1.71262   1.79746   1.80011   1.80293
  Beta virt. eigenvalues --    2.01371   2.11515   2.12544   2.47189   3.05596
  Beta virt. eigenvalues --    3.05866   3.06365   3.06664   3.32403   3.41589
  Beta virt. eigenvalues --    3.42723   3.59761   3.90172   3.90893   4.02344
  Beta virt. eigenvalues --    4.04984   4.14728   4.15361   4.15363   4.44609
  Beta virt. eigenvalues --    4.44659   4.56174   4.75942   4.90449   4.91665
  Beta virt. eigenvalues --    5.15115   5.16077   5.23130   5.23225   5.57136
  Beta virt. eigenvalues --    5.66238   5.67020   6.39715   6.40138   6.54614
  Beta virt. eigenvalues --    7.26273   8.70244   8.71546   8.71709   8.73000
  Beta virt. eigenvalues --    8.74648   8.74701   8.99668   9.02214   9.37306
  Beta virt. eigenvalues --   10.77874  10.78452  10.78742  10.81346  11.13131
  Beta virt. eigenvalues --   11.19886  11.28282  11.28359  11.28740  11.28747
  Beta virt. eigenvalues --   11.40277  11.53235  11.53864  11.61624  11.62100
  Beta virt. eigenvalues --   11.68921  11.93296  11.96380  12.54164  12.58014
  Beta virt. eigenvalues --   13.02844  13.28683  14.37561  14.37650  14.51742
  Beta virt. eigenvalues --   14.51857  14.94854  15.18490  15.18549  15.78001
  Beta virt. eigenvalues --   15.78200  15.91446  15.92139  16.21115  16.59840
  Beta virt. eigenvalues --   47.47078  54.38033 250.35436 283.28411
          Condensed to atoms (all electrons):
               1          2
     1  O    7.984665  -0.019711
     2  F   -0.019711   9.054757
          Atomic-Atomic Spin Densities.
               1          2
     1  O    0.999875  -0.075423
     2  F   -0.075423   0.150972
 Mulliken charges and spin densities:
               1          2
     1  O    0.035046   0.924451
     2  F   -0.035046   0.075549
 Sum of Mulliken charges =  -0.00000   1.00000
 Mulliken charges and spin densities with hydrogens summed into heavy atoms:
               1          2
     1  O    0.035046   0.924451
     2  F   -0.035046   0.075549
 Electronic spatial extent (au):  <R**2>=             49.6856
 Charge=             -0.0000 electrons
 Dipole moment (field-independent basis, Debye):
    X=              0.0000    Y=              0.0000    Z=             -0.1027  Tot=              0.1027
 Quadrupole moment (field-independent basis, Debye-Ang):
   XX=             -9.4544   YY=            -10.4129   ZZ=             -9.7214
   XY=              0.0000   XZ=              0.0000   YZ=             -0.0000
 Traceless Quadrupole moment (field-independent basis, Debye-Ang):
   XX=              0.4085   YY=             -0.5500   ZZ=              0.1415
   XY=              0.0000   XZ=              0.0000   YZ=             -0.0000
 Octapole moment (field-independent basis, Debye-Ang**2):
  XXX=              0.0000  YYY=              0.0000  ZZZ=              1.8060  XYY=              0.0000
  XXY=             -0.0000  XXZ=              0.3621  XZZ=              0.0000  YZZ=              0.0000
  YYZ=              1.0560  XYZ=             -0.0000
 Hexadecapole moment (field-independent basis, Debye-Ang**3):
 XXXX=             -6.2231 YYYY=             -7.4618 ZZZZ=            -31.4317 XXXY=              0.0000
 XXXZ=              0.0000 YYYX=              0.0000 YYYZ=             -0.0000 ZZZX=              0.0000
 ZZZY=             -0.0000 XXYY=             -2.2819 XXZZ=             -6.5353 YYZZ=             -7.4170
 XXYZ=              0.0000 YYXZ=              0.0000 ZZXY=              0.0000
 N-N= 2.816016222224D+01 E-N=-4.725145642937D+02  KE= 1.743796060300D+02
                          Isotropic Fermi Contact Couplings
        Atom                 a.u.       MegaHertz       Gauss      10(-4) cm-1
     1  O(17)              0.13617     -82.54787     -29.45513     -27.53500
     2  F(19)              0.02878     121.09079      43.20821      40.39154
 PrsmSu:  requested number of processors reduced to:  21 ShMem   1 Linda.
 --------------------------------------------------------
       Center         ----  Spin Dipole Couplings  ----
                      3XX-RR        3YY-RR        3ZZ-RR
 --------------------------------------------------------
     1   Atom        3.895122     -1.999029     -1.896093
     2   Atom        1.406959     -0.532362     -0.874596
 --------------------------------------------------------
                        XY            XZ            YZ
 --------------------------------------------------------
     1   Atom        0.000000      0.000000      0.000000
     2   Atom        0.000000      0.000000      0.000000
 --------------------------------------------------------


 ---------------------------------------------------------------------------------
              Anisotropic Spin Dipole Couplings in Principal Axis System
 ---------------------------------------------------------------------------------

       Atom             a.u.   MegaHertz   Gauss  10(-4) cm-1        Axes

              Baa    -1.9990   144.648    51.614    48.249 -0.0000  1.0000  0.0000
     1 O(17)  Bbb    -1.8961   137.200    48.956    45.765  0.0000  0.0000  1.0000
              Bcc     3.8951  -281.848  -100.570   -94.014  1.0000  0.0000  0.0000
 
              Baa    -0.8746  -439.245  -156.733  -146.516  0.0000  0.0000  1.0000
     2 F(19)  Bbb    -0.5324  -267.366   -95.403   -89.184 -0.0000  1.0000  0.0000
              Bcc     1.4070   706.611   252.136   235.700  1.0000  0.0000  0.0000
 

 ---------------------------------------------------------------------------------

 PrsmSu:  requested number of processors reduced to:  21 ShMem   1 Linda.
 No NMR shielding tensors so no spin-rotation constants.
 Leave Link  601 at Sat Apr 17 20:28:12 2021, MaxMem=   104857600 cpu:             143.3 elap:               3.3
 (Enter /s/ls4/users/knvvv/bin/g16sse/l9999.exe)

 Test job not archived.
 1\1\GINC-N153\Stability\UM062X\Gen\F1O1(2)\KNVVV\17-Apr-2021\0\\#P M06
 2X/GEN Integral=UltraFineGrid SCF=NoSymm Stable=(RExt, Opt) IOp(1/33=1
 )\\Database calculations.\\0,2\O,0,0.,0.,0.\F,0,0.,0.,1.35300212\\Vers
 ion=ES64L-G16RevA.03\HF=-174.8935347\S2=0.755007\S2-1=0.\S2A=0.750019\
 RMSD=9.597e-09\Dipole=0.,0.,-0.040396\Quadrupole=0.3036796,-0.408884,0
 .1052044,0.,0.,0.\PG=C*V [C*(O1F1)]\\@


 I (ERNEST RUTHERFORD) CAME INTO THE ROOM, WHICH WAS HALF DARK, AND PRESENTLY
 SPOTTED LORD KELVIN IN THE AUDIENCE AND REALIZED I WAS IN TROUBLE AT
 THE LAST PART OF MY SPEECH DEALING THE AGE OF THE EARTH, WHERE MY VIEWS
 CONFLICTED WITH HIS.  TO MY RELIEF KELVIN FELL FAST ASLEEP, BUT AS I CAME
 TO THE IMPORTANT POINT, I SAW THE OLD BIRD SIT UP AND COCK A BALEFUL GLANCE
 AT ME! THEN A SUDDEN INSPIRATION CAME AND I SAID LORD KELVIN HAD LIMITED
 THE AGE OF THE EARTH PROVIDED NO NEW SOURCE WAS DISCOVERED. THAT
 PROPHETIC UTTERANCE REFERS TO WHAT WE ARE NOW CONSIDERING TONIGHT, RADIUM!
 BEHOLD!  THE OLD BOY BEAMED UPON ME.
 Job cpu time:       0 days  1 hours 53 minutes 42.0 seconds.
 Elapsed time:       0 days  0 hours  2 minutes 39.3 seconds.
 File lengths (MBytes):  RWF=     76 Int=      0 D2E=      0 Chk=      3 Scr=      1
 Normal termination of Gaussian 16 at Sat Apr 17 20:28:12 2021.
