 Entering Gaussian System, Link 0=/opt/g16avx/g16
 Input=M062X--MG3S--049_CH3NH2_SR-MGN-BE107.gjf
 Output=M062X--MG3S--049_CH3NH2_SR-MGN-BE107.log
 Initial command:
 /opt/g16avx/l1.exe "/scratch/gaussian/Gau-14621.inp" -scrdir="/scratch/gaussian/"
 Entering Link 1 = /opt/g16avx/l1.exe PID=     14623.
  
 Copyright (c) 1988,1990,1992,1993,1995,1998,2003,2009,2016,
            Gaussian, Inc.  All Rights Reserved.
  
 This is part of the Gaussian(R) 16 program.  It is based on
 the Gaussian(R) 09 system (copyright 2009, Gaussian, Inc.),
 the Gaussian(R) 03 system (copyright 2003, Gaussian, Inc.),
 the Gaussian(R) 98 system (copyright 1998, Gaussian, Inc.),
 the Gaussian(R) 94 system (copyright 1995, Gaussian, Inc.),
 the Gaussian 92(TM) system (copyright 1992, Gaussian, Inc.),
 the Gaussian 90(TM) system (copyright 1990, Gaussian, Inc.),
 the Gaussian 88(TM) system (copyright 1988, Gaussian, Inc.),
 the Gaussian 86(TM) system (copyright 1986, Carnegie Mellon
 University), and the Gaussian 82(TM) system (copyright 1983,
 Carnegie Mellon University). Gaussian is a federally registered
 trademark of Gaussian, Inc.
  
 This software contains proprietary and confidential information,
 including trade secrets, belonging to Gaussian, Inc.
  
 This software is provided under written license and may be
 used, copied, transmitted, or stored only in accord with that
 written license.
  
 The following legend is applicable only to US Government
 contracts under FAR:
  
                    RESTRICTED RIGHTS LEGEND
  
 Use, reproduction and disclosure by the US Government is
 subject to restrictions as set forth in subparagraphs (a)
 and (c) of the Commercial Computer Software - Restricted
 Rights clause in FAR 52.227-19.
  
 Gaussian, Inc.
 340 Quinnipiac St., Bldg. 40, Wallingford CT 06492
  
  
 ---------------------------------------------------------------
 Warning -- This program may not be used in any manner that
 competes with the business of Gaussian, Inc. or will provide
 assistance to any competitor of Gaussian, Inc.  The licensee
 of this program is prohibited from giving any competitor of
 Gaussian, Inc. access to this program.  By using this program,
 the user acknowledges that Gaussian, Inc. is engaged in the
 business of creating and licensing software in the field of
 computational chemistry and represents and warrants to the
 licensee that it is not a competitor of Gaussian, Inc. and that
 it will not use this program in any manner prohibited above.
 ---------------------------------------------------------------
  

 Cite this work as:
 Gaussian 16, Revision A.03,
 M. J. Frisch, G. W. Trucks, H. B. Schlegel, G. E. Scuseria, 
 M. A. Robb, J. R. Cheeseman, G. Scalmani, V. Barone, 
 G. A. Petersson, H. Nakatsuji, X. Li, M. Caricato, A. V. Marenich, 
 J. Bloino, B. G. Janesko, R. Gomperts, B. Mennucci, H. P. Hratchian, 
 J. V. Ortiz, A. F. Izmaylov, J. L. Sonnenberg, D. Williams-Young, 
 F. Ding, F. Lipparini, F. Egidi, J. Goings, B. Peng, A. Petrone, 
 T. Henderson, D. Ranasinghe, V. G. Zakrzewski, J. Gao, N. Rega, 
 G. Zheng, W. Liang, M. Hada, M. Ehara, K. Toyota, R. Fukuda, 
 J. Hasegawa, M. Ishida, T. Nakajima, Y. Honda, O. Kitao, H. Nakai, 
 T. Vreven, K. Throssell, J. A. Montgomery, Jr., J. E. Peralta, 
 F. Ogliaro, M. J. Bearpark, J. J. Heyd, E. N. Brothers, K. N. Kudin, 
 V. N. Staroverov, T. A. Keith, R. Kobayashi, J. Normand, 
 K. Raghavachari, A. P. Rendell, J. C. Burant, S. S. Iyengar, 
 J. Tomasi, M. Cossi, J. M. Millam, M. Klene, C. Adamo, R. Cammi, 
 J. W. Ochterski, R. L. Martin, K. Morokuma, O. Farkas, 
 J. B. Foresman, and D. J. Fox, Gaussian, Inc., Wallingford CT, 2016.
 
 ******************************************
 Gaussian 16:  ES64L-G16RevA.03 25-Dec-2016
                19-Apr-2021 
 ******************************************
 %nprocshared=7
 Will use up to    7 processors via shared memory.
 ----------------------------------------------------------------------
 #P M062X/GEN Integral=UltraFineGrid SCF=NoSymm Stable=(RExt, Opt) IOp(
 1/33=1)
 ----------------------------------------------------------------------
 1/33=1,38=1,172=1/1;
 2/12=2,17=6,18=5,40=1/2;
 3/5=7,11=2,25=1,30=1,74=-55,75=-5/1,2,3;
 4/9=2/1;
 5/5=2,38=5/2;
 6/7=2,8=2,9=2,10=2,28=1/1;
 8/6=1,10=90,11=11/1;
 9/8=-3,42=1,46=1/14;
 5/5=2,8=3,17=40,38=5/8(-2);
 6/7=2,8=2,9=2,10=2,28=1/1;
 99/5=1,9=1/99;
 Leave Link    1 at Mon Apr 19 21:00:07 2021, MaxMem=           0 cpu:               0.3 elap:               0.0
 (Enter /opt/g16avx/l101.exe)
 ONIOM data not found on unit 2.
 ----------------------
 Database calculations.
 ----------------------
 TstMul:  ICh=     0
 TstMul:  Mul=     1
 TstMul:  ICh=     0
 TstMul:  Mul=     1
 Symbolic Z-matrix:
 Charge =  0 Multiplicity = 1
 C                     0.04992   0.70595   0. 
 N                     0.04992  -0.75763   0. 
 H                    -0.94373   1.16562   0. 
 H                    -0.44008  -1.1111    0.80998 
 H                    -0.44008  -1.1111   -0.80998 
 H                     0.58747   1.06218   0.87748 
 H                     0.58747   1.06218  -0.87748 
 
 RdStrC is calling ZToCFu for IStruc=1 NZ=     7.
 PrtBox:  NBox=     1 Levels=  1 BoxLen=    8.00 SMaxX=        4.30
          Shift=            1.783391            2.099675            1.658197
 Box      1 Number                   0 centers from      1 to      7:
 After GenITR:
 ITRead=  0  0  0  0  0  0  0
 MicOpt= -1 -1 -1 -1 -1 -1 -1
 ITRead=  0  0  0  0  0  0  0
 MicOpt= -1 -1 -1 -1 -1 -1 -1
 NAtoms=      7 NQM=        7 NQMF=       0 NMMI=      0 NMMIF=      0
                NMic=       0 NMicF=      0.
                    Isotopes and Nuclear Properties:
 (Nuclear quadrupole moments (NQMom) in fm**2, nuclear magnetic moments (NMagM)
  in nuclear magnetons)

  Atom         1           2           3           4           5           6           7
 IAtWgt=          12          14           1           1           1           1           1
 AtmWgt=  12.0000000  14.0030740   1.0078250   1.0078250   1.0078250   1.0078250   1.0078250
 NucSpn=           0           2           1           1           1           1           1
 AtZEff=  -0.0000000  -0.0000000  -0.0000000  -0.0000000  -0.0000000  -0.0000000  -0.0000000
 NQMom=    0.0000000   2.0440000   0.0000000   0.0000000   0.0000000   0.0000000   0.0000000
 NMagM=    0.0000000   0.4037610   2.7928460   2.7928460   2.7928460   2.7928460   2.7928460
 AtZNuc=   6.0000000   7.0000000   1.0000000   1.0000000   1.0000000   1.0000000   1.0000000
 No MM parameters found.
 Leave Link  101 at Mon Apr 19 21:00:07 2021, MaxMem=   104857600 cpu:               1.3 elap:               0.2
 (Enter /opt/g16avx/l202.exe)
                          Input orientation:                          
 ---------------------------------------------------------------------
 Center     Atomic      Atomic             Coordinates (Angstroms)
 Number     Number       Type             X           Y           Z
 ---------------------------------------------------------------------
      1          6           0        0.049920    0.705950    0.000000
      2          7           0        0.049920   -0.757630    0.000000
      3          1           0       -0.943730    1.165620    0.000000
      4          1           0       -0.440080   -1.111100    0.809980
      5          1           0       -0.440080   -1.111100   -0.809980
      6          1           0        0.587470    1.062180    0.877480
      7          1           0        0.587470    1.062180   -0.877480
 ---------------------------------------------------------------------
                    Distance matrix (angstroms):
                    1          2          3          4          5
     1  C    0.000000
     2  N    1.463580   0.000000
     3  H    1.094823   2.164770   0.000000
     4  H    2.048863   1.010499   2.468438   0.000000
     5  H    2.048863   1.010499   2.468438   1.619960   0.000000
     6  H    1.088959   2.090607   1.767836   2.404904   2.937095
     7  H    1.088959   2.090607   1.767836   2.937095   2.404904
                    6          7
     6  H    0.000000
     7  H    1.754960   0.000000
 Stoichiometry    CH5N
 Framework group  CS[SG(CHN),X(H4)]
 Deg. of freedom     9
 Full point group                 CS      NOp   2
 Largest Abelian subgroup         CS      NOp   2
 Largest concise Abelian subgroup CS      NOp   2
                         Standard orientation:                         
 ---------------------------------------------------------------------
 Center     Atomic      Atomic             Coordinates (Angstroms)
 Number     Number       Type             X           Y           Z
 ---------------------------------------------------------------------
      1          6           0        0.049919    0.705946   -0.000000
      2          7           0        0.049919   -0.757634    0.000000
      3          1           0       -0.943731    1.165616   -0.000000
      4          1           0       -0.440081   -1.111104    0.809980
      5          1           0       -0.440081   -1.111104   -0.809980
      6          1           0        0.587469    1.062176    0.877480
      7          1           0        0.587469    1.062176   -0.877480
 ---------------------------------------------------------------------
 Rotational constants (GHZ):         104.2306517          22.8174912          21.9263977
 Leave Link  202 at Mon Apr 19 21:00:08 2021, MaxMem=   104857600 cpu:               0.0 elap:               0.0
 (Enter /opt/g16avx/l301.exe)
 General basis read from cards:  (5D, 7F)
 Centers:       3      4      5      6      7
 S 3 1.00
     Exponent=  3.3865000000D+01 Coefficients=  2.5493800000D-02
     Exponent=  5.0947900000D+00 Coefficients=  1.9037300000D-01
     Exponent=  1.1587900000D+00 Coefficients=  8.5216100000D-01
 S 1 1.00
     Exponent=  3.2584000000D-01 Coefficients=  1.0000000000D+00
 S 1 1.00
     Exponent=  1.0274100000D-01 Coefficients=  1.0000000000D+00
 P 1 1.00
     Exponent=  1.5000000000D+00 Coefficients=  1.0000000000D+00
 P 1 1.00
     Exponent=  3.7500000000D-01 Coefficients=  1.0000000000D+00
 ****
 Centers:       1
 S 6 1.00
     Exponent=  4.5632400000D+03 Coefficients=  1.9666500000D-03
     Exponent=  6.8202400000D+02 Coefficients=  1.5230600000D-02
     Exponent=  1.5497300000D+02 Coefficients=  7.6126900000D-02
     Exponent=  4.4455300000D+01 Coefficients=  2.6080100000D-01
     Exponent=  1.3029000000D+01 Coefficients=  6.1646200000D-01
     Exponent=  1.8277300000D+00 Coefficients=  2.2100600000D-01
 S 3 1.00
     Exponent=  2.0964200000D+01 Coefficients=  1.1466000000D-01
     Exponent=  4.8033100000D+00 Coefficients=  9.1999900000D-01
     Exponent=  1.4593300000D+00 Coefficients= -3.0306800000D-03
 S 1 1.00
     Exponent=  4.8345600000D-01 Coefficients=  1.0000000000D+00
 S 1 1.00
     Exponent=  1.4558500000D-01 Coefficients=  1.0000000000D+00
 S 1 1.00
     Exponent=  4.3800000000D-02 Coefficients=  1.0000000000D+00
 P 3 1.00
     Exponent=  2.0964200000D+01 Coefficients=  4.0248700000D-02
     Exponent=  4.8033100000D+00 Coefficients=  2.3759400000D-01
     Exponent=  1.4593300000D+00 Coefficients=  8.1585400000D-01
 P 1 1.00
     Exponent=  4.8345600000D-01 Coefficients=  1.0000000000D+00
 P 1 1.00
     Exponent=  1.4558500000D-01 Coefficients=  1.0000000000D+00
 P 1 1.00
     Exponent=  4.3800000000D-02 Coefficients=  1.0000000000D+00
 D 1 1.00
     Exponent=  1.2520000000D+00 Coefficients=  1.0000000000D+00
 D 1 1.00
     Exponent=  3.1300000000D-01 Coefficients=  1.0000000000D+00
 F 1 1.00
     Exponent=  8.0000000000D-01 Coefficients=  1.0000000000D+00
 ****
 Centers:       2
 S 6 1.00
     Exponent=  6.2934800000D+03 Coefficients=  1.9697900000D-03
     Exponent=  9.4904400000D+02 Coefficients=  1.4961300000D-02
     Exponent=  2.1877600000D+02 Coefficients=  7.3500600000D-02
     Exponent=  6.3691600000D+01 Coefficients=  2.4893700000D-01
     Exponent=  1.8828200000D+01 Coefficients=  6.0246000000D-01
     Exponent=  2.7202300000D+00 Coefficients=  2.5620200000D-01
 S 3 1.00
     Exponent=  3.0633100000D+01 Coefficients=  1.1190600000D-01
     Exponent=  7.0261400000D+00 Coefficients=  9.2166600000D-01
     Exponent=  2.1120500000D+00 Coefficients= -2.5691900000D-03
 S 1 1.00
     Exponent=  6.8400900000D-01 Coefficients=  1.0000000000D+00
 S 1 1.00
     Exponent=  2.0087800000D-01 Coefficients=  1.0000000000D+00
 S 1 1.00
     Exponent=  6.3900000000D-02 Coefficients=  1.0000000000D+00
 P 3 1.00
     Exponent=  3.0633100000D+01 Coefficients=  3.8311900000D-02
     Exponent=  7.0261400000D+00 Coefficients=  2.3740300000D-01
     Exponent=  2.1120500000D+00 Coefficients=  8.1759200000D-01
 P 1 1.00
     Exponent=  6.8400900000D-01 Coefficients=  1.0000000000D+00
 P 1 1.00
     Exponent=  2.0087800000D-01 Coefficients=  1.0000000000D+00
 P 1 1.00
     Exponent=  6.3900000000D-02 Coefficients=  1.0000000000D+00
 D 1 1.00
     Exponent=  1.8260000000D+00 Coefficients=  1.0000000000D+00
 D 1 1.00
     Exponent=  4.5650000000D-01 Coefficients=  1.0000000000D+00
 F 1 1.00
     Exponent=  1.0000000000D+00 Coefficients=  1.0000000000D+00
 ****
 Ernie: Thresh=  0.10000D-02 Tol=  0.10000D-05 Strict=F.
 There are    79 symmetry adapted cartesian basis functions of A'  symmetry.
 There are    44 symmetry adapted cartesian basis functions of A"  symmetry.
 There are    71 symmetry adapted basis functions of A'  symmetry.
 There are    42 symmetry adapted basis functions of A"  symmetry.
   113 basis functions,   159 primitive gaussians,   123 cartesian basis functions
     9 alpha electrons        9 beta electrons
       nuclear repulsion energy        42.0588511761 Hartrees.
 IExCor= 4336 DFT=T Ex+Corr=M062X ExCW=0 ScaHFX=  0.540000
 ScaDFX=  1.000000  1.000000  1.000000  1.000000 ScalE2=  1.000000  1.000000
 IRadAn=      5 IRanWt=     -1 IRanGd=            0 ICorTp=0 IEmpDi=  4
 NAtoms=    7 NActive=    7 NUniq=    5 SFac= 1.96D+00 NAtFMM=   60 NAOKFM=F Big=F
 Integral buffers will be    131072 words long.
 Raffenetti 2 integral format.
 Two-electron integral symmetry is turned on.
 Leave Link  301 at Mon Apr 19 21:00:08 2021, MaxMem=   104857600 cpu:               0.5 elap:               0.1
 (Enter /opt/g16avx/l302.exe)
 NPDir=0 NMtPBC=     1 NCelOv=     1 NCel=       1 NClECP=     1 NCelD=      1
         NCelK=      1 NCelE2=     1 NClLst=     1 CellRange=     0.0.
 One-electron integrals computed using PRISM.
 One-electron integral symmetry used in STVInt
 NBasis=   113 RedAO= T EigKep=  1.05D-03  NBF=    71    42
 NBsUse=   113 1.00D-06 EigRej= -1.00D+00 NBFU=    71    42
 Precomputing XC quadrature grid using
 IXCGrd= 4 IRadAn=           5 IRanWt=          -1 IRanGd=           0 AccXCQ= 0.00D+00.
 Generated NRdTot=       0 NPtTot=           0 NUsed=           0 NTot=          32
 NSgBfM=   123   123   123   123   123 MxSgAt=     7 MxSgA2=     7.
 Leave Link  302 at Mon Apr 19 21:00:08 2021, MaxMem=   104857600 cpu:               1.1 elap:               0.2
 (Enter /opt/g16avx/l303.exe)
 DipDrv:  MaxL=1.
 Leave Link  303 at Mon Apr 19 21:00:08 2021, MaxMem=   104857600 cpu:               0.3 elap:               0.0
 (Enter /opt/g16avx/l401.exe)
 SCF N**3 symmetry information disabled.
 ExpMin= 4.38D-02 ExpMax= 6.29D+03 ExpMxC= 9.49D+02 IAcc=3 IRadAn=         5 AccDes= 0.00D+00
 Harris functional with IExCor= 1009 and IRadAn=       5 diagonalized for initial guess.
 HarFok:  IExCor= 1009 AccDes= 0.00D+00 IRadAn=         5 IDoV= 1 UseB2=F ITyADJ=14
 ICtDFT=  3500011 ScaDFX=  1.000000  1.000000  1.000000  1.000000
 FoFCou: FMM=F IPFlag=           0 FMFlag=      100000 FMFlg1=           0
         NFxFlg=           0 DoJE=T BraDBF=F KetDBF=T FulRan=T
         wScrn=  0.000000 ICntrl=       500 IOpCl=  0 I1Cent=   200000004 NGrid=           0
         NMat0=    1 NMatS0=      1 NMatT0=    0 NMatD0=    1 NMtDS0=    0 NMtDT0=    0
 Petite list used in FoFCou.
 Harris En= -95.8327761628819    
 JPrj=0 DoOrth=F DoCkMO=F.
 Initial guess orbital symmetries:
       Occupied  (A') (A') (A') (A') (A") (A') (A') (A") (A')
       Virtual   (A') (A') (A") (A') (A") (A') (A') (A") (A') (A')
                 (A") (A') (A') (A') (A") (A') (A') (A") (A') (A")
                 (A') (A") (A') (A') (A") (A') (A') (A') (A") (A")
                 (A') (A') (A") (A") (A') (A') (A") (A') (A') (A")
                 (A') (A') (A") (A') (A") (A') (A') (A') (A") (A')
                 (A") (A') (A") (A') (A') (A') (A") (A") (A") (A')
                 (A') (A') (A") (A") (A') (A') (A') (A") (A') (A")
                 (A') (A') (A") (A") (A') (A') (A') (A") (A') (A")
                 (A') (A") (A') (A') (A") (A') (A') (A") (A') (A")
                 (A') (A") (A') (A") (A') (A') (A") (A') (A") (A')
                 (A') (A") (A') (A')
 The electronic state of the initial guess is 1-A'.
 Leave Link  401 at Mon Apr 19 21:00:08 2021, MaxMem=   104857600 cpu:               2.1 elap:               0.3
 (Enter /opt/g16avx/l502.exe)
 Keep R1 ints in memory in symmetry-blocked form, NReq=31193427.
 FoFCou: FMM=F IPFlag=           0 FMFlag=           0 FMFlg1=           0
         NFxFlg=           0 DoJE=F BraDBF=F KetDBF=F FulRan=T
         wScrn=  0.000000 ICntrl=       600 IOpCl=  0 I1Cent=           0 NGrid=           0
         NMat0=    1 NMatS0=   6441 NMatT0=    0 NMatD0=    1 NMtDS0=    0 NMtDT0=    0
 Petite list used in FoFCou.
 Closed shell SCF:
 Using DIIS extrapolation, IDIIS=  1040.
 NGot=   104857600 LenX=    94379049 LenY=    94363479
 Requested convergence on RMS density matrix=1.00D-08 within 128 cycles.
 Requested convergence on MAX density matrix=1.00D-06.
 Requested convergence on             energy=1.00D-06.
 No special actions if energy rises.

 Cycle   1  Pass 1  IDiag  1:
 E= -95.7374292853797    
 DIIS: error= 3.30D-02 at cycle   1 NSaved=   1.
 NSaved= 1 IEnMin= 1 EnMin= -95.7374292853797     IErMin= 1 ErrMin= 3.30D-02
 ErrMax= 3.30D-02  0.00D+00 EMaxC= 1.00D-01 BMatC= 1.28D-01 BMatP= 1.28D-01
 IDIUse=3 WtCom= 6.70D-01 WtEn= 3.30D-01
 Coeff-Com:  0.100D+01
 Coeff-En:   0.100D+01
 Coeff:      0.100D+01
 Gap=     0.237 Goal=   None    Shift=    0.000
 GapD=    0.237 DampG=1.000 DampE=0.500 DampFc=0.5000 IDamp=-1.
 Damping current iteration by 5.00D-01
 RMSDP=3.89D-03 MaxDP=9.34D-02              OVMax= 1.72D-01

 Cycle   2  Pass 1  IDiag  1:
 E= -95.7878505199814     Delta-E=       -0.050421234602 Rises=F Damp=T
 DIIS: error= 8.62D-03 at cycle   2 NSaved=   2.
 NSaved= 2 IEnMin= 2 EnMin= -95.7878505199814     IErMin= 2 ErrMin= 8.62D-03
 ErrMax= 8.62D-03  0.00D+00 EMaxC= 1.00D-01 BMatC= 6.77D-03 BMatP= 1.28D-01
 IDIUse=3 WtCom= 9.14D-01 WtEn= 8.62D-02
 Coeff-Com: -0.403D-01 0.104D+01
 Coeff-En:   0.000D+00 0.100D+01
 Coeff:     -0.369D-01 0.104D+01
 Gap=     0.329 Goal=   None    Shift=    0.000
 RMSDP=7.70D-04 MaxDP=1.39D-02 DE=-5.04D-02 OVMax= 9.99D-02

 Cycle   3  Pass 1  IDiag  1:
 E= -95.8396076925971     Delta-E=       -0.051757172616 Rises=F Damp=F
 DIIS: error= 3.92D-03 at cycle   3 NSaved=   3.
 NSaved= 3 IEnMin= 3 EnMin= -95.8396076925971     IErMin= 3 ErrMin= 3.92D-03
 ErrMax= 3.92D-03  0.00D+00 EMaxC= 1.00D-01 BMatC= 1.36D-03 BMatP= 6.77D-03
 IDIUse=3 WtCom= 9.61D-01 WtEn= 3.92D-02
 Coeff-Com: -0.587D-01 0.276D+00 0.782D+00
 Coeff-En:   0.000D+00 0.000D+00 0.100D+01
 Coeff:     -0.564D-01 0.266D+00 0.791D+00
 Gap=     0.320 Goal=   None    Shift=    0.000
 RMSDP=2.12D-04 MaxDP=7.13D-03 DE=-5.18D-02 OVMax= 1.08D-02

 Cycle   4  Pass 1  IDiag  1:
 E= -95.8405006292568     Delta-E=       -0.000892936660 Rises=F Damp=F
 DIIS: error= 1.59D-03 at cycle   4 NSaved=   4.
 NSaved= 4 IEnMin= 4 EnMin= -95.8405006292568     IErMin= 4 ErrMin= 1.59D-03
 ErrMax= 1.59D-03  0.00D+00 EMaxC= 1.00D-01 BMatC= 2.31D-04 BMatP= 1.36D-03
 IDIUse=3 WtCom= 9.84D-01 WtEn= 1.59D-02
 Coeff-Com: -0.210D-01 0.596D-01 0.343D+00 0.619D+00
 Coeff-En:   0.000D+00 0.000D+00 0.422D-01 0.958D+00
 Coeff:     -0.206D-01 0.587D-01 0.338D+00 0.624D+00
 Gap=     0.322 Goal=   None    Shift=    0.000
 RMSDP=8.35D-05 MaxDP=3.04D-03 DE=-8.93D-04 OVMax= 4.09D-03

 Cycle   5  Pass 1  IDiag  1:
 E= -95.8406903096711     Delta-E=       -0.000189680414 Rises=F Damp=F
 DIIS: error= 1.95D-04 at cycle   5 NSaved=   5.
 NSaved= 5 IEnMin= 5 EnMin= -95.8406903096711     IErMin= 5 ErrMin= 1.95D-04
 ErrMax= 1.95D-04  0.00D+00 EMaxC= 1.00D-01 BMatC= 5.23D-06 BMatP= 2.31D-04
 IDIUse=3 WtCom= 9.98D-01 WtEn= 1.95D-03
 Coeff-Com: -0.264D-02 0.379D-02 0.592D-01 0.190D+00 0.750D+00
 Coeff-En:   0.000D+00 0.000D+00 0.000D+00 0.000D+00 0.100D+01
 Coeff:     -0.263D-02 0.378D-02 0.591D-01 0.189D+00 0.751D+00
 Gap=     0.322 Goal=   None    Shift=    0.000
 RMSDP=1.35D-05 MaxDP=3.88D-04 DE=-1.90D-04 OVMax= 5.45D-04

 Cycle   6  Pass 1  IDiag  1:
 E= -95.8406946371660     Delta-E=       -0.000004327495 Rises=F Damp=F
 DIIS: error= 2.61D-05 at cycle   6 NSaved=   6.
 NSaved= 6 IEnMin= 6 EnMin= -95.8406946371660     IErMin= 6 ErrMin= 2.61D-05
 ErrMax= 2.61D-05  0.00D+00 EMaxC= 1.00D-01 BMatC= 3.30D-08 BMatP= 5.23D-06
 IDIUse=1 WtCom= 1.00D+00 WtEn= 0.00D+00
 Coeff-Com:  0.107D-02-0.231D-02-0.150D-01-0.294D-01-0.572D-01 0.110D+01
 Coeff:      0.107D-02-0.231D-02-0.150D-01-0.294D-01-0.572D-01 0.110D+01
 Gap=     0.322 Goal=   None    Shift=    0.000
 RMSDP=6.54D-06 MaxDP=1.62D-04 DE=-4.33D-06 OVMax= 1.62D-04

 Cycle   7  Pass 1  IDiag  1:
 E= -95.8406946990357     Delta-E=       -0.000000061870 Rises=F Damp=F
 DIIS: error= 2.88D-06 at cycle   7 NSaved=   7.
 NSaved= 7 IEnMin= 7 EnMin= -95.8406946990357     IErMin= 7 ErrMin= 2.88D-06
 ErrMax= 2.88D-06  0.00D+00 EMaxC= 1.00D-01 BMatC= 7.87D-10 BMatP= 3.30D-08
 IDIUse=1 WtCom= 1.00D+00 WtEn= 0.00D+00
 Coeff-Com: -0.474D-04 0.715D-04-0.318D-03-0.128D-02-0.104D-01-0.525D-01
 Coeff-Com:  0.106D+01
 Coeff:     -0.474D-04 0.715D-04-0.318D-03-0.128D-02-0.104D-01-0.525D-01
 Coeff:      0.106D+01
 Gap=     0.322 Goal=   None    Shift=    0.000
 RMSDP=8.22D-07 MaxDP=1.84D-05 DE=-6.19D-08 OVMax= 2.70D-05

 Cycle   8  Pass 1  IDiag  1:
 E= -95.8406947004914     Delta-E=       -0.000000001456 Rises=F Damp=F
 DIIS: error= 6.51D-07 at cycle   8 NSaved=   8.
 NSaved= 8 IEnMin= 8 EnMin= -95.8406947004914     IErMin= 8 ErrMin= 6.51D-07
 ErrMax= 6.51D-07  0.00D+00 EMaxC= 1.00D-01 BMatC= 3.45D-11 BMatP= 7.87D-10
 IDIUse=1 WtCom= 1.00D+00 WtEn= 0.00D+00
 Coeff-Com: -0.394D-04 0.800D-04 0.370D-03 0.537D-03-0.234D-03-0.353D-01
 Coeff-Com:  0.175D+00 0.859D+00
 Coeff:     -0.394D-04 0.800D-04 0.370D-03 0.537D-03-0.234D-03-0.353D-01
 Coeff:      0.175D+00 0.859D+00
 Gap=     0.322 Goal=   None    Shift=    0.000
 RMSDP=2.00D-07 MaxDP=5.35D-06 DE=-1.46D-09 OVMax= 5.31D-06

 Cycle   9  Pass 1  IDiag  1:
 E= -95.8406947005518     Delta-E=       -0.000000000060 Rises=F Damp=F
 DIIS: error= 1.18D-07 at cycle   9 NSaved=   9.
 NSaved= 9 IEnMin= 9 EnMin= -95.8406947005518     IErMin= 9 ErrMin= 1.18D-07
 ErrMax= 1.18D-07  0.00D+00 EMaxC= 1.00D-01 BMatC= 2.02D-12 BMatP= 3.45D-11
 IDIUse=1 WtCom= 1.00D+00 WtEn= 0.00D+00
 Coeff-Com:  0.186D-05-0.973D-06 0.149D-04-0.130D-04 0.800D-04 0.107D-02
 Coeff-Com: -0.489D-01 0.386D-01 0.101D+01
 Coeff:      0.186D-05-0.973D-06 0.149D-04-0.130D-04 0.800D-04 0.107D-02
 Coeff:     -0.489D-01 0.386D-01 0.101D+01
 Gap=     0.322 Goal=   None    Shift=    0.000
 RMSDP=5.56D-08 MaxDP=1.20D-06 DE=-6.03D-11 OVMax= 2.15D-06

 Cycle  10  Pass 1  IDiag  1:
 E= -95.8406947005563     Delta-E=       -0.000000000005 Rises=F Damp=F
 DIIS: error= 2.98D-08 at cycle  10 NSaved=  10.
 NSaved=10 IEnMin=10 EnMin= -95.8406947005563     IErMin=10 ErrMin= 2.98D-08
 ErrMax= 2.98D-08  0.00D+00 EMaxC= 1.00D-01 BMatC= 6.50D-14 BMatP= 2.02D-12
 IDIUse=1 WtCom= 1.00D+00 WtEn= 0.00D+00
 Coeff-Com:  0.139D-05-0.279D-05-0.948D-05-0.159D-04-0.152D-04 0.143D-02
 Coeff-Com: -0.533D-02-0.273D-01-0.413D-01 0.107D+01
 Coeff:      0.139D-05-0.279D-05-0.948D-05-0.159D-04-0.152D-04 0.143D-02
 Coeff:     -0.533D-02-0.273D-01-0.413D-01 0.107D+01
 Gap=     0.322 Goal=   None    Shift=    0.000
 RMSDP=1.06D-08 MaxDP=2.19D-07 DE=-4.55D-12 OVMax= 4.87D-07

 Cycle  11  Pass 1  IDiag  1:
 E= -95.8406947005566     Delta-E=       -0.000000000000 Rises=F Damp=F
 DIIS: error= 6.32D-09 at cycle  11 NSaved=  11.
 NSaved=11 IEnMin=11 EnMin= -95.8406947005566     IErMin=11 ErrMin= 6.32D-09
 ErrMax= 6.32D-09  0.00D+00 EMaxC= 1.00D-01 BMatC= 3.57D-15 BMatP= 6.50D-14
 IDIUse=1 WtCom= 1.00D+00 WtEn= 0.00D+00
 Coeff-Com: -0.786D-07-0.119D-07-0.102D-06-0.249D-06-0.720D-05-0.513D-04
 Coeff-Com:  0.184D-02-0.582D-03-0.448D-01-0.315D-03 0.104D+01
 Coeff:     -0.786D-07-0.119D-07-0.102D-06-0.249D-06-0.720D-05-0.513D-04
 Coeff:      0.184D-02-0.582D-03-0.448D-01-0.315D-03 0.104D+01
 Gap=     0.322 Goal=   None    Shift=    0.000
 RMSDP=1.67D-09 MaxDP=3.53D-08 DE=-2.84D-13 OVMax= 1.04D-07

 SCF Done:  E(RM062X) =  -95.8406947006     A.U. after   11 cycles
            NFock= 11  Conv=0.17D-08     -V/T= 2.0040
 KE= 9.545704161767D+01 PE=-3.070697370030D+02 EE= 7.371314950873D+01
 Leave Link  502 at Mon Apr 19 21:00:12 2021, MaxMem=   104857600 cpu:              25.3 elap:               3.7
 (Enter /opt/g16avx/l601.exe)
 Copying SCF densities to generalized density rwf, IOpCl= 0 IROHF=0.

 **********************************************************************

            Population analysis using the SCF density.

 **********************************************************************

 Orbital symmetries:
       Occupied  (A') (A') (A') (A') (A") (A') (A') (A") (A')
       Virtual   (A') (A') (A") (A') (A') (A") (A') (A") (A') (A')
                 (A") (A') (A') (A') (A") (A') (A') (A") (A') (A")
                 (A') (A') (A") (A') (A") (A') (A') (A') (A") (A")
                 (A') (A') (A") (A") (A') (A') (A") (A') (A') (A")
                 (A') (A') (A") (A') (A") (A') (A') (A') (A") (A')
                 (A") (A') (A") (A') (A') (A') (A") (A") (A") (A')
                 (A') (A') (A") (A") (A') (A') (A') (A") (A") (A')
                 (A') (A') (A") (A") (A') (A') (A") (A') (A') (A")
                 (A') (A") (A') (A') (A") (A') (A") (A') (A') (A")
                 (A") (A') (A') (A") (A') (A') (A") (A') (A") (A')
                 (A') (A") (A') (A')
 The electronic state is 1-A'.
 Alpha  occ. eigenvalues --  -14.72252 -10.54898  -0.98055  -0.74980  -0.56346
 Alpha  occ. eigenvalues --   -0.50899  -0.46921  -0.43148  -0.30750
 Alpha virt. eigenvalues --    0.01457   0.03948   0.05024   0.05876   0.11022
 Alpha virt. eigenvalues --    0.13471   0.15913   0.17845   0.18777   0.21351
 Alpha virt. eigenvalues --    0.21572   0.23023   0.26853   0.28743   0.42298
 Alpha virt. eigenvalues --    0.44097   0.51269   0.51867   0.55207   0.56794
 Alpha virt. eigenvalues --    0.61055   0.62164   0.62791   0.64497   0.64592
 Alpha virt. eigenvalues --    0.67017   0.76101   0.77763   0.88683   0.90045
 Alpha virt. eigenvalues --    0.95396   0.95615   1.04946   1.10870   1.11035
 Alpha virt. eigenvalues --    1.16563   1.20164   1.21602   1.25156   1.30757
 Alpha virt. eigenvalues --    1.31695   1.34635   1.42374   1.44305   1.46028
 Alpha virt. eigenvalues --    1.52361   1.55108   1.66287   1.67811   1.75265
 Alpha virt. eigenvalues --    1.87294   1.88311   2.34040   2.37713   2.45659
 Alpha virt. eigenvalues --    2.65608   2.73849   2.97835   3.03779   3.04377
 Alpha virt. eigenvalues --    3.07145   3.14371   3.16581   3.26000   3.28494
 Alpha virt. eigenvalues --    3.32023   3.35516   3.38563   3.47152   3.50402
 Alpha virt. eigenvalues --    3.67755   3.70990   3.74003   3.77670   3.82843
 Alpha virt. eigenvalues --    3.88931   3.93588   3.93714   4.03425   4.14132
 Alpha virt. eigenvalues --    4.14380   4.22481   4.26438   4.29455   4.32833
 Alpha virt. eigenvalues --    4.46678   4.63333   4.64101   4.71705   4.79037
 Alpha virt. eigenvalues --    4.85720   4.86897   5.14398   5.19462   5.25595
 Alpha virt. eigenvalues --    5.31976   5.50908   5.58300   5.65230   5.75341
 Alpha virt. eigenvalues --    6.09635   6.44906  24.41299  35.82051
          Condensed to atoms (all electrons):
               1          2          3          4          5          6
     1  C    4.867130   0.210652   0.435821  -0.040410  -0.040410   0.423316
     2  N    0.210652   6.536441  -0.069442   0.401229   0.401229  -0.040968
     3  H    0.435821  -0.069442   0.626144  -0.004242  -0.004242  -0.040891
     4  H   -0.040410   0.401229  -0.004242   0.511347  -0.046461  -0.007636
     5  H   -0.040410   0.401229  -0.004242  -0.046461   0.511347   0.007376
     6  H    0.423316  -0.040968  -0.040891  -0.007636   0.007376   0.573777
     7  H    0.423316  -0.040968  -0.040891   0.007376  -0.007636  -0.026099
               7
     1  C    0.423316
     2  N   -0.040968
     3  H   -0.040891
     4  H    0.007376
     5  H   -0.007636
     6  H   -0.026099
     7  H    0.573777
 Mulliken charges:
               1
     1  C   -0.279415
     2  N   -0.398173
     3  H    0.097744
     4  H    0.178797
     5  H    0.178797
     6  H    0.111126
     7  H    0.111126
 Sum of Mulliken charges =  -0.00000
 Mulliken charges with hydrogens summed into heavy atoms:
               1
     1  C    0.040580
     2  N   -0.040580
 Electronic spatial extent (au):  <R**2>=             95.5593
 Charge=             -0.0000 electrons
 Dipole moment (field-independent basis, Debye):
    X=             -1.3100    Y=              0.4239    Z=             -0.0000  Tot=              1.3769
 Quadrupole moment (field-independent basis, Debye-Ang):
   XX=            -15.1778   YY=            -14.4646   ZZ=            -12.6940
   XY=              2.1817   XZ=              0.0000   YZ=              0.0000
 Traceless Quadrupole moment (field-independent basis, Debye-Ang):
   XX=             -1.0657   YY=             -0.3525   ZZ=              1.4182
   XY=              2.1817   XZ=              0.0000   YZ=              0.0000
 Octapole moment (field-independent basis, Debye-Ang**2):
  XXX=             -1.5788  YYY=             -1.8918  ZZZ=             -0.0000  XYY=             -2.5720
  XXY=              0.6278  XXZ=             -0.0000  XZZ=             -0.5184  YZZ=             -1.8876
  YYZ=              0.0000  XYZ=             -0.0000
 Hexadecapole moment (field-independent basis, Debye-Ang**3):
 XXXX=            -26.2369 YYYY=            -78.7573 ZZZZ=            -23.9233 XXXY=             -0.9416
 XXXZ=             -0.0000 YYYX=              2.0736 YYYZ=              0.0000 ZZZX=              0.0000
 ZZZY=              0.0000 XXYY=            -17.8568 XXZZ=             -7.9991 YYZZ=            -15.0447
 XXYZ=              0.0000 YYXZ=              0.0000 ZZXY=              1.5455
 N-N= 4.205885117607D+01 E-N=-3.070697371461D+02  KE= 9.545704161767D+01
 No NMR shielding tensors so no spin-rotation constants.
 Leave Link  601 at Mon Apr 19 21:00:12 2021, MaxMem=   104857600 cpu:               0.9 elap:               0.1
 (Enter /opt/g16avx/l801.exe)
 DoSCS=F DFT=T ScalE2(SS,OS)=  1.000000  1.000000
 Range of M.O.s used for correlation:     1   113
 NBasis=   113 NAE=     9 NBE=     9 NFC=     0 NFV=     0
 NROrb=    113 NOA=     9 NOB=     9 NVA=   104 NVB=   104

 **** Warning!!: The largest alpha MO coefficient is  0.11945930D+02

 Leave Link  801 at Mon Apr 19 21:00:12 2021, MaxMem=   104857600 cpu:               0.2 elap:               0.0
 (Enter /opt/g16avx/l914.exe)
 RHF ground state
 Doing stability rather than CIS.
 Keep R1 and R2 ints in memory in symmetry-blocked form, NReq=39358989.
 FoFCou: FMM=F IPFlag=           0 FMFlag=           0 FMFlg1=           0
         NFxFlg=           0 DoJE=F BraDBF=F KetDBF=F FulRan=T
         wScrn=  0.000000 ICntrl=       600 IOpCl=  0 I1Cent=           0 NGrid=           0
         NMat0=    1 NMatS0=   6441 NMatT0=    0 NMatD0=    1 NMtDS0=    0 NMtDT0=    0
 Petite list used in FoFCou.
 MDV=   104857600 DFT=T DoStab=T Mixed=T DoRPA=F DoScal=F NonHer=F
 Making orbital integer symmetry assigments:
 Orbital symmetries:
       Occupied  (A') (A') (A') (A') (A") (A') (A') (A") (A')
       Virtual   (A') (A') (A") (A') (A') (A") (A') (A") (A') (A')
                 (A") (A') (A') (A') (A") (A') (A') (A") (A') (A")
                 (A') (A') (A") (A') (A") (A') (A') (A') (A") (A")
                 (A') (A') (A") (A") (A') (A') (A") (A') (A') (A")
                 (A') (A') (A") (A') (A") (A') (A') (A') (A") (A')
                 (A") (A') (A") (A') (A') (A') (A") (A") (A") (A')
                 (A') (A') (A") (A") (A') (A') (A') (A") (A") (A')
                 (A') (A') (A") (A") (A') (A') (A") (A') (A') (A")
                 (A') (A") (A') (A') (A") (A') (A") (A') (A') (A")
                 (A") (A') (A') (A") (A') (A') (A") (A') (A") (A')
                 (A') (A") (A') (A')
    24 initial guesses have been made.
 Convergence on wavefunction:    0.001000000000000
 Davidson Disk Diagonalization:  ConvIn= 1.00D-03 SkipCon=T Conv= 1.00D-03.
 Max sub-space:  2000 roots to seek:    24 dimension of matrix:         1872
 Iteration     1 Dimension    24 NMult     0 NNew     24
 CISAX will form    24 AO SS matrices at one time.
 NMat=    24 NSing=    12 JSym2X= 2.
 New state      1 was old state      2
 Excitation Energies [eV] at current iteration:
 Root      1 :     6.216651856354305
 Root      2 :     6.292043366952017
 Root      3 :     7.234685616372794
 Root      4 :     7.316631068019761
 Root      5 :     7.376201255747647
 Root      6 :     7.378433688617224
 Root      7 :     7.806595224142199
 Root      8 :     7.904930213094360
 Root      9 :     8.790283431672606
 Root     10 :     8.945858710845979
 Root     11 :     9.391257522011411
 Root     12 :     9.497487153177211
 Root     13 :     9.627230197407238
 Root     14 :     9.704598990868220
 Root     15 :     9.875331107137718
 Root     16 :     9.981952183800688
 Root     17 :    10.198443907673752
 Root     18 :    10.330524266793580
 Root     19 :    10.479785711586999
 Root     20 :    10.556366419647718
 Root     21 :    10.665139129426274
 Root     22 :    10.783679785022130
 Root     23 :    11.142654822354073
 Root     24 :    11.449553675827303
 Iteration     2 Dimension    48 NMult    24 NNew     24
 CISAX will form    24 AO SS matrices at one time.
 NMat=    24 NSing=    12 JSym2X= 2.
 Root      1 not converged, maximum delta is    0.146923948051099
 Excitation Energies [eV] at current iteration:
 Root      1 :     5.850694585268190   Change is   -0.365957271086114
 Root      2 :     6.141384288517892   Change is   -0.150659078434125
 Root      3 :     7.005444085449096   Change is   -0.229241530923699
 Root      4 :     7.187555689458085   Change is   -0.190877999159139
 Root      5 :     7.215740250819046   Change is   -0.100890817200716
 Root      6 :     7.286153501839236   Change is   -0.090047753908411
 Root      7 :     7.663226477662884   Change is   -0.143368746479314
 Root      8 :     7.793788803601983   Change is   -0.111141409492377
 Root      9 :     8.683730498003321   Change is   -0.106552933669284
 Root     10 :     8.765336347867335   Change is   -0.180522362978643
 Root     11 :     9.086260838165861   Change is   -0.411226315011349
 Root     12 :     9.265760670604900   Change is   -0.125496851406511
 Root     13 :     9.303539952871761   Change is   -0.323690244535477
 Root     14 :     9.478668314111664   Change is   -0.503283869689023
 Root     15 :     9.578515006487045   Change is   -0.126083984381175
 Root     16 :     9.626412903580441   Change is   -0.248918203557278
 Root     17 :    10.014955856745093   Change is   -0.315568410048486
 Root     18 :    10.040340703642212   Change is   -0.158103204031541
 Root     19 :    10.192178017497461   Change is   -1.257375658329841
 Root     20 :    10.222694165300114   Change is   -0.333672254347604
 Root     21 :    10.367785737271864   Change is   -0.111999974315134
 Root     22 :    10.510910995047144   Change is   -0.272768789974986
 Root     23 :    10.630012605295709   Change is   -0.035126524130564
 Root     24 :    10.868454852211292   Change is   -0.274199970142783
 Iteration     3 Dimension    54 NMult    48 NNew      6
 CISAX will form     6 AO SS matrices at one time.
 NMat=     6 NSing=     3 JSym2X= 2.
 Root      1 not converged, maximum delta is    0.014282149744727
 Excitation Energies [eV] at current iteration:
 Root      1 :     5.830248038125880   Change is   -0.020446547142310
 Root      2 :     6.129566354300109   Change is   -0.011817934217783
 Root      3 :     6.988401830268160   Change is   -0.017042255180935
 Root      4 :     7.170899017252713   Change is   -0.016656672205372
 Root      5 :     7.204071823237849   Change is   -0.011668427581197
 Root      6 :     7.281131603297369   Change is   -0.005021898541867
 Iteration     4 Dimension    60 NMult    54 NNew      6
 CISAX will form     6 AO SS matrices at one time.
 NMat=     6 NSing=     3 JSym2X= 2.
 Root      1 not converged, maximum delta is    0.002977513451352
 Excitation Energies [eV] at current iteration:
 Root      1 :     5.828993083968058   Change is   -0.001254954157823
 Root      2 :     6.129108069425297   Change is   -0.000458284874812
 Root      3 :     6.986904394297608   Change is   -0.001497435970552
 Root      4 :     7.169885019039258   Change is   -0.001013998213455
 Root      5 :     7.203297248730414   Change is   -0.000774574507435
 Root      6 :     7.280777574453430   Change is   -0.000354028843938
 Iteration     5 Dimension    66 NMult    60 NNew      6
 CISAX will form     6 AO SS matrices at one time.
 NMat=     6 NSing=     3 JSym2X= 2.
 Root      1 has converged.
 Excitation Energies [eV] at current iteration:
 Root      1 :     5.828942167167551   Change is   -0.000050916800507
 Root      2 :     6.129093284047989   Change is   -0.000014785377308
 Root      3 :     6.986819705785543   Change is   -0.000084688512065
 Root      4 :     7.169836147512893   Change is   -0.000048871526366
 Root      5 :     7.203241360797608   Change is   -0.000055887932806
 Root      6 :     7.280762112071999   Change is   -0.000015462381432
 Convergence achieved on expansion vectors.
 ***********************************************************************
 Stability analysis using <AA,BB:AA,BB> singles matrix:
 ***********************************************************************
 1PDM for each excited state written to RWF  633
 Ground to excited state transition densities written to RWF  633

 Eigenvectors of the stability matrix:
 
 Eigenvector   1:      Triplet-A'   Eigenvalue= 0.2142097  <S**2>=2.000
       9 -> 10         0.63760
       9 -> 11        -0.22637
       9 -> 19        -0.16033
 The wavefunction is stable under the perturbations considered.
 Leave Link  914 at Mon Apr 19 21:01:03 2021, MaxMem=   104857600 cpu:             357.0 elap:              51.0
 (Enter /opt/g16avx/l508.exe)
 The wavefunction is already stable.
 Leave Link  508 at Mon Apr 19 21:01:03 2021, MaxMem=   104857600 cpu:               0.0 elap:               0.0
 (Enter /opt/g16avx/l601.exe)
 Copying SCF densities to generalized density rwf, IOpCl= 0 IROHF=0.

 **********************************************************************

            Population analysis using the SCF density.

 **********************************************************************

 Orbital symmetries:
       Occupied  (A') (A') (A') (A') (A") (A') (A') (A") (A')
       Virtual   (A') (A') (A") (A') (A') (A") (A') (A") (A') (A')
                 (A") (A') (A') (A') (A") (A') (A') (A") (A') (A")
                 (A') (A') (A") (A') (A") (A') (A') (A') (A") (A")
                 (A') (A') (A") (A") (A') (A') (A") (A') (A') (A")
                 (A') (A') (A") (A') (A") (A') (A') (A') (A") (A')
                 (A") (A') (A") (A') (A') (A') (A") (A") (A") (A')
                 (A') (A') (A") (A") (A') (A') (A') (A") (A") (A')
                 (A') (A') (A") (A") (A') (A') (A") (A') (A') (A")
                 (A') (A") (A') (A') (A") (A') (A") (A') (A') (A")
                 (A") (A') (A') (A") (A') (A') (A") (A') (A") (A')
                 (A') (A") (A') (A')
 The electronic state is 1-A'.
 Alpha  occ. eigenvalues --  -14.72252 -10.54898  -0.98055  -0.74980  -0.56346
 Alpha  occ. eigenvalues --   -0.50899  -0.46921  -0.43148  -0.30750
 Alpha virt. eigenvalues --    0.01457   0.03948   0.05024   0.05876   0.11022
 Alpha virt. eigenvalues --    0.13471   0.15913   0.17845   0.18777   0.21351
 Alpha virt. eigenvalues --    0.21572   0.23023   0.26853   0.28743   0.42298
 Alpha virt. eigenvalues --    0.44097   0.51269   0.51867   0.55207   0.56794
 Alpha virt. eigenvalues --    0.61055   0.62164   0.62791   0.64497   0.64592
 Alpha virt. eigenvalues --    0.67017   0.76101   0.77763   0.88683   0.90045
 Alpha virt. eigenvalues --    0.95396   0.95615   1.04946   1.10870   1.11035
 Alpha virt. eigenvalues --    1.16563   1.20164   1.21602   1.25156   1.30757
 Alpha virt. eigenvalues --    1.31695   1.34635   1.42374   1.44305   1.46028
 Alpha virt. eigenvalues --    1.52361   1.55108   1.66287   1.67811   1.75265
 Alpha virt. eigenvalues --    1.87294   1.88311   2.34040   2.37713   2.45659
 Alpha virt. eigenvalues --    2.65608   2.73849   2.97835   3.03779   3.04377
 Alpha virt. eigenvalues --    3.07145   3.14371   3.16581   3.26000   3.28494
 Alpha virt. eigenvalues --    3.32023   3.35516   3.38563   3.47152   3.50402
 Alpha virt. eigenvalues --    3.67755   3.70990   3.74003   3.77670   3.82843
 Alpha virt. eigenvalues --    3.88931   3.93588   3.93714   4.03425   4.14132
 Alpha virt. eigenvalues --    4.14380   4.22481   4.26438   4.29455   4.32833
 Alpha virt. eigenvalues --    4.46678   4.63333   4.64101   4.71705   4.79037
 Alpha virt. eigenvalues --    4.85720   4.86897   5.14398   5.19462   5.25595
 Alpha virt. eigenvalues --    5.31976   5.50908   5.58300   5.65230   5.75341
 Alpha virt. eigenvalues --    6.09635   6.44906  24.41299  35.82051
          Condensed to atoms (all electrons):
               1          2          3          4          5          6
     1  C    4.867130   0.210652   0.435821  -0.040410  -0.040410   0.423316
     2  N    0.210652   6.536441  -0.069442   0.401229   0.401229  -0.040968
     3  H    0.435821  -0.069442   0.626144  -0.004242  -0.004242  -0.040891
     4  H   -0.040410   0.401229  -0.004242   0.511347  -0.046461  -0.007636
     5  H   -0.040410   0.401229  -0.004242  -0.046461   0.511347   0.007376
     6  H    0.423316  -0.040968  -0.040891  -0.007636   0.007376   0.573777
     7  H    0.423316  -0.040968  -0.040891   0.007376  -0.007636  -0.026099
               7
     1  C    0.423316
     2  N   -0.040968
     3  H   -0.040891
     4  H    0.007376
     5  H   -0.007636
     6  H   -0.026099
     7  H    0.573777
 Mulliken charges:
               1
     1  C   -0.279415
     2  N   -0.398173
     3  H    0.097744
     4  H    0.178797
     5  H    0.178797
     6  H    0.111126
     7  H    0.111126
 Sum of Mulliken charges =  -0.00000
 Mulliken charges with hydrogens summed into heavy atoms:
               1
     1  C    0.040580
     2  N   -0.040580
 Electronic spatial extent (au):  <R**2>=             95.5593
 Charge=             -0.0000 electrons
 Dipole moment (field-independent basis, Debye):
    X=             -1.3100    Y=              0.4239    Z=             -0.0000  Tot=              1.3769
 Quadrupole moment (field-independent basis, Debye-Ang):
   XX=            -15.1778   YY=            -14.4646   ZZ=            -12.6940
   XY=              2.1817   XZ=              0.0000   YZ=              0.0000
 Traceless Quadrupole moment (field-independent basis, Debye-Ang):
   XX=             -1.0657   YY=             -0.3525   ZZ=              1.4182
   XY=              2.1817   XZ=              0.0000   YZ=              0.0000
 Octapole moment (field-independent basis, Debye-Ang**2):
  XXX=             -1.5788  YYY=             -1.8918  ZZZ=             -0.0000  XYY=             -2.5720
  XXY=              0.6278  XXZ=             -0.0000  XZZ=             -0.5184  YZZ=             -1.8876
  YYZ=              0.0000  XYZ=             -0.0000
 Hexadecapole moment (field-independent basis, Debye-Ang**3):
 XXXX=            -26.2369 YYYY=            -78.7573 ZZZZ=            -23.9233 XXXY=             -0.9416
 XXXZ=             -0.0000 YYYX=              2.0736 YYYZ=              0.0000 ZZZX=              0.0000
 ZZZY=              0.0000 XXYY=            -17.8568 XXZZ=             -7.9991 YYZZ=            -15.0447
 XXYZ=              0.0000 YYXZ=              0.0000 ZZXY=              1.5455
 N-N= 4.205885117607D+01 E-N=-3.070697371461D+02  KE= 9.545704161767D+01
 No NMR shielding tensors so no spin-rotation constants.
 Leave Link  601 at Mon Apr 19 21:01:03 2021, MaxMem=   104857600 cpu:               0.8 elap:               0.1
 (Enter /opt/g16avx/l9999.exe)

 Test job not archived.
 1\1\GINC-VERTEX\Stability\RM062X\Gen\C1H5N1\XRAY\19-Apr-2021\0\\#P M06
 2X/GEN Integral=UltraFineGrid SCF=NoSymm Stable=(RExt, Opt) IOp(1/33=1
 )\\Database calculations.\\0,1\C,0,0.04992,0.70595,0.\N,0,0.04992,-0.7
 5763,0.\H,0,-0.94373,1.16562,0.\H,0,-0.44008,-1.1111,0.80998\H,0,-0.44
 008,-1.1111,-0.80998\H,0,0.58747,1.06218,0.87748\H,0,0.58747,1.06218,-
 0.87748\\Version=ES64L-G16RevA.03\State=1-A'\HF=-95.8406947\RMSD=1.666
 e-09\Dipole=-0.5153882,0.1667711,0.\Quadrupole=-0.7923093,-0.2620552,1
 .0543645,1.6220117,0.,0.\PG=CS [SG(C1H1N1),X(H4)]\\@


 A MAN IS EXACTLY AS GREAT AS THE TIDE SURGING
 BENEATH HIM.      - BISMARCK
 Job cpu time:       0 days  0 hours  6 minutes 30.0 seconds.
 Elapsed time:       0 days  0 hours  0 minutes 55.8 seconds.
 File lengths (MBytes):  RWF=     73 Int=      0 D2E=      0 Chk=      3 Scr=      1
 Normal termination of Gaussian 16 at Mon Apr 19 21:01:03 2021.
