 Entering Gaussian System, Link 0=/s/ls4/groups/g0130/bin/g16/g16
 Input=M062X--def2-QZVPPD--12_boat-b_H2O16Rel5.gjf
 Output=M062X--def2-QZVPPD--12_boat-b_H2O16Rel5.log
 Initial command:
 /s/ls4/groups/g0130/bin/g16/l1.exe "/dev/shm/scratch_knvvv/Gau-16260.inp" -scrdir="/dev/shm/scratch_knvvv/"
 Entering Link 1 = /s/ls4/groups/g0130/bin/g16/l1.exe PID=     16261.
  
 Copyright (c) 1988,1990,1992,1993,1995,1998,2003,2009,2016,
            Gaussian, Inc.  All Rights Reserved.
  
 This is part of the Gaussian(R) 16 program.  It is based on
 the Gaussian(R) 09 system (copyright 2009, Gaussian, Inc.),
 the Gaussian(R) 03 system (copyright 2003, Gaussian, Inc.),
 the Gaussian(R) 98 system (copyright 1998, Gaussian, Inc.),
 the Gaussian(R) 94 system (copyright 1995, Gaussian, Inc.),
 the Gaussian 92(TM) system (copyright 1992, Gaussian, Inc.),
 the Gaussian 90(TM) system (copyright 1990, Gaussian, Inc.),
 the Gaussian 88(TM) system (copyright 1988, Gaussian, Inc.),
 the Gaussian 86(TM) system (copyright 1986, Carnegie Mellon
 University), and the Gaussian 82(TM) system (copyright 1983,
 Carnegie Mellon University). Gaussian is a federally registered
 trademark of Gaussian, Inc.
  
 This software contains proprietary and confidential information,
 including trade secrets, belonging to Gaussian, Inc.
  
 This software is provided under written license and may be
 used, copied, transmitted, or stored only in accord with that
 written license.
  
 The following legend is applicable only to US Government
 contracts under FAR:
  
                    RESTRICTED RIGHTS LEGEND
  
 Use, reproduction and disclosure by the US Government is
 subject to restrictions as set forth in subparagraphs (a)
 and (c) of the Commercial Computer Software - Restricted
 Rights clause in FAR 52.227-19.
  
 Gaussian, Inc.
 340 Quinnipiac St., Bldg. 40, Wallingford CT 06492
  
  
 ---------------------------------------------------------------
 Warning -- This program may not be used in any manner that
 competes with the business of Gaussian, Inc. or will provide
 assistance to any competitor of Gaussian, Inc.  The licensee
 of this program is prohibited from giving any competitor of
 Gaussian, Inc. access to this program.  By using this program,
 the user acknowledges that Gaussian, Inc. is engaged in the
 business of creating and licensing software in the field of
 computational chemistry and represents and warrants to the
 licensee that it is not a competitor of Gaussian, Inc. and that
 it will not use this program in any manner prohibited above.
 ---------------------------------------------------------------
  

 Cite this work as:
 Gaussian 16, Revision A.03,
 M. J. Frisch, G. W. Trucks, H. B. Schlegel, G. E. Scuseria, 
 M. A. Robb, J. R. Cheeseman, G. Scalmani, V. Barone, 
 G. A. Petersson, H. Nakatsuji, X. Li, M. Caricato, A. V. Marenich, 
 J. Bloino, B. G. Janesko, R. Gomperts, B. Mennucci, H. P. Hratchian, 
 J. V. Ortiz, A. F. Izmaylov, J. L. Sonnenberg, D. Williams-Young, 
 F. Ding, F. Lipparini, F. Egidi, J. Goings, B. Peng, A. Petrone, 
 T. Henderson, D. Ranasinghe, V. G. Zakrzewski, J. Gao, N. Rega, 
 G. Zheng, W. Liang, M. Hada, M. Ehara, K. Toyota, R. Fukuda, 
 J. Hasegawa, M. Ishida, T. Nakajima, Y. Honda, O. Kitao, H. Nakai, 
 T. Vreven, K. Throssell, J. A. Montgomery, Jr., J. E. Peralta, 
 F. Ogliaro, M. J. Bearpark, J. J. Heyd, E. N. Brothers, K. N. Kudin, 
 V. N. Staroverov, T. A. Keith, R. Kobayashi, J. Normand, 
 K. Raghavachari, A. P. Rendell, J. C. Burant, S. S. Iyengar, 
 J. Tomasi, M. Cossi, J. M. Millam, M. Klene, C. Adamo, R. Cammi, 
 J. W. Ochterski, R. L. Martin, K. Morokuma, O. Farkas, 
 J. B. Foresman, and D. J. Fox, Gaussian, Inc., Wallingford CT, 2016.
 
 ******************************************
 Gaussian 16:  ES64L-G16RevA.03 25-Dec-2016
                20-Apr-2021 
 ******************************************
 %nprocshared=48
 Will use up to   48 processors via shared memory.
 %mem=90GB
 ----------------------------------------------------------------------
 #P M062X/GEN Integral=UltraFineGrid SCF=NoSymm Stable=(RExt, Opt) IOp(
 1/33=1)
 ----------------------------------------------------------------------
 1/33=1,38=1,172=1/1;
 2/12=2,17=6,18=5,40=1/2;
 3/5=7,11=2,25=1,30=1,74=-55,75=-5/1,2,3;
 4/9=2/1;
 5/5=2,38=5/2;
 6/7=2,8=2,9=2,10=2,28=1/1;
 8/6=1,10=90,11=11/1;
 9/8=-3,42=1,46=1/14;
 5/5=2,8=3,17=40,38=5/8(-2);
 6/7=2,8=2,9=2,10=2,28=1/1;
 99/5=1,9=1/99;
 Leave Link    1 at Tue Apr 20 10:36:08 2021, MaxMem= 12079595520 cpu:               7.6 elap:               0.2
 (Enter /s/ls4/groups/g0130/bin/g16/l101.exe)
 ONIOM data not found on unit 2.
 ----------------------
 Database calculations.
 ----------------------
 TstMul:  ICh=     0
 TstMul:  Mul=     1
 TstMul:  ICh=     0
 TstMul:  Mul=     1
 Symbolic Z-matrix:
 Charge =  0 Multiplicity = 1
 O                    -0.01751   0.57324  -1.88042 
 H                    -0.01751  -0.35666  -1.56651 
 H                    -0.90247   0.72842  -2.26053 
 O                     2.71098  -1.00765   2.45358 
 H                     3.09534  -1.23778   3.3044 
 H                     3.21784  -0.21737   2.12751 
 O                    -4.02892  -1.1276   -1.28467 
 H                    -3.62475  -0.42084  -1.81844 
 H                    -4.30212  -0.67725  -0.46595 
 O                    -2.7049    1.13453  -2.41162 
 H                    -2.80491   1.64017  -1.55956 
 H                    -3.07514   1.69287  -3.10156 
 O                     0.03664  -0.55694   1.84971 
 H                     0.93076  -0.69218   2.21935 
 H                     0.01474   0.37306   1.53634 
 O                     4.03057   1.01374   1.34823 
 H                     3.52109   1.81315   1.126 
 H                     4.30131   0.65663   0.48393 
 O                    -2.503    -1.69239   2.12641 
 H                    -1.6015   -1.32617   2.19218 
 H                    -2.4545   -2.33052   1.39511 
 O                     2.83815  -2.26354  -0.13873 
 H                     1.89981  -2.28679  -0.4028 
 H                     2.81341  -2.05154   0.80944 
 O                    -2.41423  -3.05294  -0.41554 
 H                    -2.729    -3.91966  -0.68755 
 H                    -3.03457  -2.39269  -0.82216 
 O                     2.51572   1.77895  -2.00086 
 H                     1.65243   1.35219  -2.14949 
 H                     3.13953   1.04238  -1.86803 
 O                     2.39417   3.0945    0.29558 
 H                     2.63524   4.02188   0.21438 
 H                     2.47045   2.70531  -0.61755 
 O                    -0.1188    1.86341   0.55879 
 H                    -0.04241   1.45794  -0.33375 
 H                     0.65744   2.45057   0.61803 
 O                    -2.85689   2.23502  -0.00605 
 H                    -1.95011   2.26613   0.34855 
 H                    -3.33475   1.59973   0.55744 
 O                    -4.23894   0.12309   1.25906 
 H                    -4.96774   0.22688   1.87749 
 H                    -3.61606  -0.5303    1.67465 
 O                     4.26738  -0.27342  -1.17162 
 H                     3.75297  -1.06726  -0.86827 
 H                     5.02174  -0.61608  -1.6593 
 O                     0.09017  -1.84611  -0.58023 
 H                    -0.7028   -2.41294  -0.63477 
 H                     0.03166  -1.4342    0.31061 
 
 RdStrC is calling ZToCFu for IStruc=1 NZ=    48.
 PrtBox:  NBox=    10 Levels=  2 BoxLen=    8.00 SMaxX=       18.88
          Shift=            9.387667            7.407093            5.861098
 Box      1 Number                   0 centers from      1 to      6:
 Box      2 Number                   1 centers from      7 to     12:
 Box      3 Number                   2 centers from     13 to     19:
 Box      4 Number                   4 centers from     20 to     26:
 Box      5 Number                   5 centers from     27 to     31:
 Box      6 Number                   6 centers from     32 to     41:
 Box      7 Number                   7 centers from     42 to     42:
 Box      8 Number                  32 centers from     43 to     45:
 Box      9 Number                  34 centers from     46 to     47:
 Box     10 Number                  35 centers from     48 to     48:
 After GenITR:
 ITRead=  0  0  0  0  0  0  0  0  0  0  0  0  0  0  0  0  0  0  0  0
 ITRead=  0  0  0  0  0  0  0  0  0  0  0  0  0  0  0  0  0  0  0  0
 ITRead=  0  0  0  0  0  0  0  0
 MicOpt= -1 -1 -1 -1 -1 -1 -1 -1 -1 -1 -1 -1 -1 -1 -1 -1 -1 -1 -1 -1
 MicOpt= -1 -1 -1 -1 -1 -1 -1 -1 -1 -1 -1 -1 -1 -1 -1 -1 -1 -1 -1 -1
 MicOpt= -1 -1 -1 -1 -1 -1 -1 -1
 ITRead=  0  0  0  0  0  0  0  0  0  0  0  0  0  0  0  0  0  0  0  0
 ITRead=  0  0  0  0  0  0  0  0  0  0  0  0  0  0  0  0  0  0  0  0
 ITRead=  0  0  0  0  0  0  0  0
 MicOpt= -1 -1 -1 -1 -1 -1 -1 -1 -1 -1 -1 -1 -1 -1 -1 -1 -1 -1 -1 -1
 MicOpt= -1 -1 -1 -1 -1 -1 -1 -1 -1 -1 -1 -1 -1 -1 -1 -1 -1 -1 -1 -1
 MicOpt= -1 -1 -1 -1 -1 -1 -1 -1
 NAtoms=     48 NQM=       48 NQMF=       0 NMMI=      0 NMMIF=      0
                NMic=       0 NMicF=      0.
                    Isotopes and Nuclear Properties:
 (Nuclear quadrupole moments (NQMom) in fm**2, nuclear magnetic moments (NMagM)
  in nuclear magnetons)

  Atom         1           2           3           4           5           6           7           8           9          10
 IAtWgt=          16           1           1          16           1           1          16           1           1          16
 AtmWgt=  15.9949146   1.0078250   1.0078250  15.9949146   1.0078250   1.0078250  15.9949146   1.0078250   1.0078250  15.9949146
 NucSpn=           0           1           1           0           1           1           0           1           1           0
 AtZEff=  -0.0000000  -0.0000000  -0.0000000  -0.0000000  -0.0000000  -0.0000000  -0.0000000  -0.0000000  -0.0000000  -0.0000000
 NQMom=    0.0000000   0.0000000   0.0000000   0.0000000   0.0000000   0.0000000   0.0000000   0.0000000   0.0000000   0.0000000
 NMagM=    0.0000000   2.7928460   2.7928460   0.0000000   2.7928460   2.7928460   0.0000000   2.7928460   2.7928460   0.0000000
 AtZNuc=   8.0000000   1.0000000   1.0000000   8.0000000   1.0000000   1.0000000   8.0000000   1.0000000   1.0000000   8.0000000

  Atom        11          12          13          14          15          16          17          18          19          20
 IAtWgt=           1           1          16           1           1          16           1           1          16           1
 AtmWgt=   1.0078250   1.0078250  15.9949146   1.0078250   1.0078250  15.9949146   1.0078250   1.0078250  15.9949146   1.0078250
 NucSpn=           1           1           0           1           1           0           1           1           0           1
 AtZEff=  -0.0000000  -0.0000000  -0.0000000  -0.0000000  -0.0000000  -0.0000000  -0.0000000  -0.0000000  -0.0000000  -0.0000000
 NQMom=    0.0000000   0.0000000   0.0000000   0.0000000   0.0000000   0.0000000   0.0000000   0.0000000   0.0000000   0.0000000
 NMagM=    2.7928460   2.7928460   0.0000000   2.7928460   2.7928460   0.0000000   2.7928460   2.7928460   0.0000000   2.7928460
 AtZNuc=   1.0000000   1.0000000   8.0000000   1.0000000   1.0000000   8.0000000   1.0000000   1.0000000   8.0000000   1.0000000

  Atom        21          22          23          24          25          26          27          28          29          30
 IAtWgt=           1          16           1           1          16           1           1          16           1           1
 AtmWgt=   1.0078250  15.9949146   1.0078250   1.0078250  15.9949146   1.0078250   1.0078250  15.9949146   1.0078250   1.0078250
 NucSpn=           1           0           1           1           0           1           1           0           1           1
 AtZEff=  -0.0000000  -0.0000000  -0.0000000  -0.0000000  -0.0000000  -0.0000000  -0.0000000  -0.0000000  -0.0000000  -0.0000000
 NQMom=    0.0000000   0.0000000   0.0000000   0.0000000   0.0000000   0.0000000   0.0000000   0.0000000   0.0000000   0.0000000
 NMagM=    2.7928460   0.0000000   2.7928460   2.7928460   0.0000000   2.7928460   2.7928460   0.0000000   2.7928460   2.7928460
 AtZNuc=   1.0000000   8.0000000   1.0000000   1.0000000   8.0000000   1.0000000   1.0000000   8.0000000   1.0000000   1.0000000

  Atom        31          32          33          34          35          36          37          38          39          40
 IAtWgt=          16           1           1          16           1           1          16           1           1          16
 AtmWgt=  15.9949146   1.0078250   1.0078250  15.9949146   1.0078250   1.0078250  15.9949146   1.0078250   1.0078250  15.9949146
 NucSpn=           0           1           1           0           1           1           0           1           1           0
 AtZEff=  -0.0000000  -0.0000000  -0.0000000  -0.0000000  -0.0000000  -0.0000000  -0.0000000  -0.0000000  -0.0000000  -0.0000000
 NQMom=    0.0000000   0.0000000   0.0000000   0.0000000   0.0000000   0.0000000   0.0000000   0.0000000   0.0000000   0.0000000
 NMagM=    0.0000000   2.7928460   2.7928460   0.0000000   2.7928460   2.7928460   0.0000000   2.7928460   2.7928460   0.0000000
 AtZNuc=   8.0000000   1.0000000   1.0000000   8.0000000   1.0000000   1.0000000   8.0000000   1.0000000   1.0000000   8.0000000

  Atom        41          42          43          44          45          46          47          48
 IAtWgt=           1           1          16           1           1          16           1           1
 AtmWgt=   1.0078250   1.0078250  15.9949146   1.0078250   1.0078250  15.9949146   1.0078250   1.0078250
 NucSpn=           1           1           0           1           1           0           1           1
 AtZEff=  -0.0000000  -0.0000000  -0.0000000  -0.0000000  -0.0000000  -0.0000000  -0.0000000  -0.0000000
 NQMom=    0.0000000   0.0000000   0.0000000   0.0000000   0.0000000   0.0000000   0.0000000   0.0000000
 NMagM=    2.7928460   2.7928460   0.0000000   2.7928460   2.7928460   0.0000000   2.7928460   2.7928460
 AtZNuc=   1.0000000   1.0000000   8.0000000   1.0000000   1.0000000   8.0000000   1.0000000   1.0000000
 No MM parameters found.
 Leave Link  101 at Tue Apr 20 10:36:08 2021, MaxMem= 12079595520 cpu:               9.8 elap:               0.2
 (Enter /s/ls4/groups/g0130/bin/g16/l202.exe)
                          Input orientation:                          
 ---------------------------------------------------------------------
 Center     Atomic      Atomic             Coordinates (Angstroms)
 Number     Number       Type             X           Y           Z
 ---------------------------------------------------------------------
      1          8           0       -0.017510    0.573245   -1.880418
      2          1           0       -0.017511   -0.356659   -1.566506
      3          1           0       -0.902468    0.728418   -2.260528
      4          8           0        2.710978   -1.007650    2.453584
      5          1           0        3.095340   -1.237776    3.304403
      6          1           0        3.217836   -0.217371    2.127506
      7          8           0       -4.028922   -1.127598   -1.284668
      8          1           0       -3.624752   -0.420841   -1.818437
      9          1           0       -4.302125   -0.677253   -0.465947
     10          8           0       -2.704896    1.134526   -2.411615
     11          1           0       -2.804907    1.640169   -1.559561
     12          1           0       -3.075139    1.692875   -3.101560
     13          8           0        0.036642   -0.556939    1.849707
     14          1           0        0.930760   -0.692184    2.219352
     15          1           0        0.014737    0.373062    1.536336
     16          8           0        4.030566    1.013739    1.348232
     17          1           0        3.521088    1.813155    1.126004
     18          1           0        4.301310    0.656627    0.483926
     19          8           0       -2.502999   -1.692391    2.126407
     20          1           0       -1.601495   -1.326166    2.192178
     21          1           0       -2.454503   -2.330520    1.395114
     22          8           0        2.838146   -2.263536   -0.138730
     23          1           0        1.899811   -2.286792   -0.402796
     24          1           0        2.813411   -2.051539    0.809438
     25          8           0       -2.414228   -3.052943   -0.415542
     26          1           0       -2.729001   -3.919665   -0.687548
     27          1           0       -3.034566   -2.392690   -0.822159
     28          8           0        2.515723    1.778955   -2.000858
     29          1           0        1.652429    1.352192   -2.149488
     30          1           0        3.139529    1.042384   -1.868032
     31          8           0        2.394166    3.094503    0.295580
     32          1           0        2.635243    4.021879    0.214381
     33          1           0        2.470453    2.705308   -0.617547
     34          8           0       -0.118797    1.863412    0.558787
     35          1           0       -0.042407    1.457941   -0.333750
     36          1           0        0.657441    2.450573    0.618030
     37          8           0       -2.856893    2.235015   -0.006054
     38          1           0       -1.950110    2.266135    0.348554
     39          1           0       -3.334754    1.599732    0.557437
     40          8           0       -4.238937    0.123092    1.259056
     41          1           0       -4.967739    0.226879    1.877486
     42          1           0       -3.616055   -0.530301    1.674654
     43          8           0        4.267375   -0.273425   -1.171620
     44          1           0        3.752968   -1.067260   -0.868275
     45          1           0        5.021742   -0.616077   -1.659300
     46          8           0        0.090175   -1.846111   -0.580226
     47          1           0       -0.702805   -2.412944   -0.634769
     48          1           0        0.031662   -1.434202    0.310611
 ---------------------------------------------------------------------
                    Distance matrix (angstroms):
                    1          2          3          4          5
     1  O    0.000000
     2  H    0.981459   0.000000
     3  H    0.975558   1.562757   0.000000
     4  O    5.359799   4.901996   6.188196   0.000000
     5  H    6.312843   5.847389   7.128593   0.961553   0.000000
     6  H    5.211141   4.912494   6.093133   0.993867   1.562471
     7  O    4.397636   4.094532   3.764546   7.708123   8.475070
     8  H    3.742225   3.616598   2.987821   7.663941   8.489435
     9  H    4.682136   4.435305   4.093177   7.603712   8.321792
    10  O    2.796292   3.187457   1.853779   7.588858   8.481947
    11  H    3.001809   3.428840   2.223042   7.317189   8.170288
    12  H    3.477622   3.988241   2.521509   8.463546   9.364821
    13  O    3.897958   3.422508   4.407732   2.778467   3.454752
    14  H    4.394160   3.917208   5.044617   1.823063   2.482018
    15  H    3.422765   3.187658   3.922208   3.165031   3.900125
    16  O    5.196647   5.173067   6.118773   2.655019   3.125791
    17  H    4.805999   4.947665   5.675659   3.221131   3.772911
    18  H    4.924356   4.887048   5.883578   3.029608   3.605303
    19  O    5.231195   4.647520   5.259963   5.268915   5.738967
    20  H    4.764746   4.192452   4.953437   4.332114   4.827538
    21  H    5.009980   4.313497   5.012947   5.436225   5.969944
    22  O    4.385838   3.718804   5.238894   2.883317   3.601874
    23  H    3.746905   2.959013   4.516130   3.233126   4.033987
    24  H    4.705202   4.065938   5.564226   1.950234   2.639421
    25  O    4.586868   3.786677   4.470804   6.219553   6.891165
    26  H    5.381575   4.562867   5.235949   6.923865   7.553221
    27  H    4.361113   3.715117   4.044263   6.757226   7.479177
    28  O    2.808116   3.341674   3.585400   5.257884   6.130449
    29  H    1.862218   2.459419   2.632285   5.279929   6.207644
    30  H    3.191730   3.466286   4.073128   4.802360   5.652890
    31  O    4.111920   4.603702   4.795815   4.645967   5.321024
    32  H    4.828909   5.420356   5.430236   5.505990   6.117507
    33  H    3.511481   4.057848   4.240764   4.824495   5.596435
    34  O    2.761252   3.075036   3.138612   4.454310   5.242752
    35  H    1.781989   2.193873   2.232572   4.629201   5.508947
    36  H    3.197212   3.620541   3.699356   4.421038   5.173381
    37  O    3.786399   4.148961   3.342494   6.896802   7.645161
    38  H    3.401343   3.779080   3.204596   6.072442   6.816964
    39  H    4.242749   4.398034   3.823104   6.851619   7.546084
    40  O    5.280092   5.102391   4.887321   7.141903   7.734793
    41  H    6.224675   6.058577   5.822467   7.798631   8.318327
    42  H    5.177439   4.846111   4.943034   6.392648   6.942581
    43  O    4.424871   4.303849   5.377424   4.012925   4.726354
    44  H    4.234642   3.899871   5.180339   3.481959   4.227622
    45  H    5.182416   5.046779   6.104540   4.733791   5.360585
    46  O    2.748704   1.789640   3.230627   4.095806   4.948881
    47  H    3.307354   2.359252   3.542755   4.813179   5.596785
    48  H    2.972014   2.164968   3.487159   3.457313   4.288064
                    6          7          8          9         10
     6  H    0.000000
     7  O    8.061448   0.000000
     8  H    7.901448   0.973534   0.000000
     9  H    7.967892   0.973526   1.534213   0.000000
    10  O    7.583535   2.853114   1.901884   3.101501   0.000000
    11  H    7.301941   3.038801   2.233143   2.967843   0.995828
    12  H    8.402006   3.487960   2.533036   3.750927   0.961695
    13  O    3.211304   5.165149   5.184555   4.919515   5.341905
    14  H    2.337649   6.088200   6.093444   5.881678   6.164473
    15  H    3.310277   5.153758   5.013050   4.873151   4.854127
    16  O    1.668361   8.744874   8.407718   8.693931   7.714758
    17  H    2.284295   8.453520   8.045092   8.362960   7.192925
    18  H    2.153867   8.700812   8.323718   8.757887   7.596016
    19  O    5.907930   3.779268   4.293829   3.314764   5.350315
    20  H    4.945661   4.245030   4.582381   3.844492   5.335486
    21  H    6.097313   3.332724   3.917049   3.100089   5.153681
    22  O    3.076814   7.054087   6.927192   7.321669   6.887536
    23  H    3.524503   6.105023   6.000551   6.407700   6.078166
    24  H    2.294567   7.215016   7.142468   7.358405   7.139882
    25  O    6.799096   2.658866   3.218920   3.034897   4.647977
    26  H    7.549594   3.137194   3.784580   3.610687   5.340209
    27  H    7.247418   1.674251   2.286717   2.162479   3.882822
    28  O    4.639145   7.196760   6.525168   7.407561   5.276256
    29  H    4.817334   6.258995   5.576907   6.512271   4.370626
    30  H    4.190160   7.512378   6.920910   7.765385   5.870373
    31  O    3.873357   7.847252   7.283824   7.723106   6.096790
    32  H    4.687292   8.554259   7.940885   8.406650   6.614360
    33  H    4.078719   7.574832   6.954601   7.571823   5.698269
    34  O    4.233634   5.256762   4.812560   5.000529   4.005306
    35  H    4.415160   4.845777   4.308981   4.766731   3.392782
    36  H    3.994004   6.195609   5.702507   5.962852   4.713390
    37  O    6.889747   3.783606   3.305740   3.283520   2.649699
    38  H    6.003344   4.301894   3.836681   3.854727   3.077138
    39  H    6.978783   3.363561   3.132346   2.677271   3.070571
    40  O    7.514891   2.842334   3.184973   1.902678   4.104888
    41  H    8.201434   3.565838   3.985349   2.598495   4.933627
    42  H    6.856025   3.047098   3.494816   2.252656   4.505492
    43  O    3.462501   8.340919   7.919961   8.607984   7.220283
    44  H    3.159649   7.793255   7.466688   8.074558   6.995268
    45  H    4.213424   9.072845   8.650162   9.400124   7.958111
    46  O    4.445995   4.240219   4.167163   4.546601   4.477790
    47  H    5.274669   3.624574   3.729252   3.999528   4.444107
    48  H    3.864388   4.373472   4.350760   4.467407   4.636553
                   11         12         13         14         15
    11  H    0.000000
    12  H    1.566386   0.000000
    13  O    4.952251   6.265771   0.000000
    14  H    5.803038   7.074449   0.976921   0.000000
    15  H    4.374989   5.727069   0.981623   1.562165   0.000000
    16  O    7.454620   8.411476   4.320872   3.643875   4.070962
    17  H    6.874619   7.835622   4.275799   3.765890   3.812707
    18  H    7.459323   8.266893   4.639557   4.023879   4.422972
    19  O    4.978299   6.254519   2.795637   3.577674   3.309573
    20  H    4.931823   6.269760   1.841872   2.610553   2.435101
    21  H    4.961779   6.065721   3.091609   3.850132   3.664212
    22  O    7.007261   7.707041   3.835985   3.415820   4.210598
    23  H    6.236465   6.918902   3.396698   3.218307   3.793226
    24  H    7.127858   7.999473   3.320607   2.716630   3.773546
    25  O    4.846308   5.493112   4.167511   4.868757   4.631114
    26  H    5.628314   6.119466   5.039282   5.679837   5.558891
    27  H    4.106148   4.678584   4.465554   5.278856   4.744485
    28  O    5.340703   5.698833   5.140923   5.140896   4.554471
    29  H    4.505418   4.834502   4.716896   4.877197   4.150425
    30  H    5.982375   6.369209   5.099738   4.959244   4.669265
    31  O    5.708501   6.589265   4.615870   4.492377   3.821962
    32  H    6.197955   7.002013   5.512948   5.398848   4.682785
    33  H    5.463637   6.160270   4.759520   4.686321   4.013616
    34  O    3.428180   4.708204   2.747496   3.223370   1.787337
    35  H    3.027742   4.112594   2.972116   3.476841   2.162741
    36  H    4.169714   5.323684   3.308708   3.537776   2.360594
    37  O    1.664310   3.150191   4.428477   5.278943   3.753944
    38  H    2.182524   3.673908   3.764358   4.533315   2.975764
    39  H    2.182670   3.669377   4.205651   5.119517   3.698926
    40  O    3.507501   4.778453   4.369426   5.320959   4.270025
    41  H    4.299828   5.524669   5.065469   5.979452   4.996281
    42  H    3.978573   5.295972   3.656987   4.582186   3.744042
    43  O    7.336860   7.842418   5.206525   4.775674   5.082903
    44  H    7.128377   7.696035   4.632378   4.199879   4.672371
    45  H    8.145982   8.542298   6.096544   5.637896   6.021676
    46  O    4.636241   5.375942   2.751254   3.142573   3.067614
    47  H    4.658518   5.345163   3.188127   3.711544   3.604219
    48  H    4.582075   5.574381   1.771562   2.236574   2.183780
                   16         17         18         19         20
    16  O    0.000000
    17  H    0.973663   0.000000
    18  H    0.973579   1.535763   0.000000
    19  O    7.114504   7.041255   7.383376   0.000000
    20  H    6.156908   6.101878   6.456988   0.975271   0.000000
    21  H    7.296738   7.276685   7.442736   0.971777   1.540019
    22  O    3.791234   4.322658   3.325042   5.829655   5.101197
    23  H    4.301130   4.666405   3.900921   5.112232   4.462717
    24  H    3.341810   3.941685   3.107083   5.488862   4.682898
    25  O    7.822032   7.828362   7.724533   2.884525   3.231485
    26  H    8.612469   8.672819   8.469951   3.595854   4.036127
    27  H    8.138209   8.028765   8.051041   3.076853   3.503911
    28  O    3.754559   3.284691   3.259155   7.366962   6.646414
    29  H    4.243128   3.799109   3.799375   6.694800   6.050759
    30  H    3.337533   3.115113   2.651462   7.434558   6.676275
    31  O    2.848765   1.897738   3.100953   7.088617   6.253375
    32  H    3.504490   2.548380   3.764751   7.918981   7.103747
    33  H    3.026491   2.222553   2.960130   7.183610   6.381857
    34  O    4.308408   3.684158   4.582496   4.559121   3.878114
    35  H    4.428938   3.867242   4.492057   4.693770   4.069683
    36  H    3.738403   2.977383   4.063743   5.424733   4.673810
    37  O    7.124795   6.491391   7.346513   4.482985   4.369240
    38  H    6.191635   5.544693   6.456709   4.374514   4.052790
    39  H    7.430793   6.882687   7.694434   3.740529   3.773254
    40  O    8.317805   7.943047   8.591932   2.657396   3.150740
    41  H    9.048136   8.668401   9.383068   3.133769   3.720562
    42  H    7.807780   7.532039   8.093905   1.671355   2.227035
    43  O    2.839459   3.192153   1.899206   7.663447   6.845951
    44  H    3.052953   3.511084   2.258520   6.963909   6.172818
    45  H    3.561457   3.988866   2.594651   8.491864   7.694503
    46  O    5.236829   5.298359   5.012960   3.751538   3.289120
    47  H    6.170839   6.229085   5.976195   3.374017   3.159171
    48  H    4.802115   4.835937   4.757257   3.128623   2.493826
                   21         22         23         24         25
    21  H    0.000000
    22  O    5.510835   0.000000
    23  H    4.711098   0.975061   0.000000
    24  H    5.307708   0.971894   1.536073   0.000000
    25  O    1.949870   5.318574   4.381562   5.461831   0.000000
    26  H    2.634049   5.834131   4.916631   6.037316   0.961393
    27  H    2.292736   5.913755   4.953298   6.080899   0.993021
    28  O    7.288591   4.462422   4.411739   4.760154   7.082718
    29  H    6.556940   4.303784   4.044049   4.657092   6.240952
    30  H    7.301904   3.743050   3.842815   4.104578   7.051642
    31  O    7.358630   5.393916   5.448894   5.188600   7.836928
    32  H    8.225121   6.298595   6.381308   6.105100   8.714762
    33  H    7.325678   5.005385   5.029196   4.978102   7.553699
    34  O    4.872785   5.124621   4.714193   4.897705   5.512610
    35  H    4.812444   4.710096   4.219005   4.666800   5.097087
    36  H    5.757336   5.248904   5.002819   4.995384   6.386871
    37  O    4.792630   7.258653   6.574981   7.154853   5.322230
    38  H    4.741196   6.609294   6.009622   6.445607   5.393685
    39  H    4.113809   7.315339   6.589976   7.155083   4.841636
    40  O    3.036927   7.598348   6.800994   7.393699   4.027534
    41  H    3.617918   8.437959   7.660384   8.177910   4.747171
    42  H    2.160586   6.924534   6.150271   6.663392   3.489559
    43  O    7.483543   2.658967   3.201577   3.033199   7.276071
    44  H    6.726920   1.673383   2.266741   2.160160   6.494783
    45  H    8.256089   3.129592   3.757199   3.609979   7.923314
    46  O    3.257607   2.814340   1.870953   3.064210   2.784888
    47  H    2.682474   3.578647   2.615977   3.818393   1.840280
    48  H    2.856668   2.960752   2.173900   2.892760   3.021589
                   26         27         28         29         30
    26  H    0.000000
    27  H    1.563055   0.000000
    28  O    7.855328   7.042561   0.000000
    29  H    7.009042   6.144417   0.974420   0.000000
    30  H    7.775289   7.142341   0.974326   1.544883   0.000000
    31  O    8.741391   7.799343   2.649353   3.092601   3.073756
    32  H    9.625835   8.623679   3.154723   3.698788   3.669896
    33  H    8.421964   7.505777   1.665452   2.201575   2.185565
    34  O    6.466103   5.340705   3.674182   3.276178   4.144903
    35  H    6.021760   4.900910   3.070233   2.486073   3.556884
    36  H    7.331607   6.257976   3.280680   3.139364   3.784741
    37  O    6.193616   4.702473   5.749108   5.070274   6.391120
    38  H    6.320150   4.924557   5.069591   4.478147   5.684650
    39  H    5.690401   4.234717   6.387885   5.679852   6.936128
    40  O    4.734243   3.480104   7.680778   6.916434   8.066321
    41  H    5.365182   4.229348   8.570455   7.830037   8.967818
    42  H    4.225476   3.168705   7.512706   6.776782   7.788574
    43  O    7.904345   7.611292   2.822797   3.230603   1.867721
    44  H    7.084122   6.915888   3.303704   3.450727   2.413798
    45  H    8.481274   8.292241   3.483241   3.932764   2.517298
    46  O    3.501270   3.181397   4.587219   3.890034   4.393223
    47  H    2.525562   2.339366   5.458675   4.692307   5.312604
    48  H    3.846441   3.406409   4.673096   4.054992   4.531975
                   31         32         33         34         35
    31  O    0.000000
    32  H    0.961633   0.000000
    33  H    0.995536   1.566083   0.000000
    34  O    2.810666   3.516011   2.965934   0.000000
    35  H    3.001879   3.747538   2.819739   0.983293   0.000000
    36  H    1.880115   2.558053   2.208744   0.975097   1.543047
    37  O    5.329476   5.779709   5.382909   2.820338   2.938122
    38  H    4.422864   4.911833   4.546163   1.886820   2.181295
    39  H    5.926502   6.451771   6.025223   3.226749   3.413776
    40  O    7.331822   7.971589   7.430032   4.527101   4.682917
    41  H    8.057502   8.658711   8.227666   5.284832   5.537506
    42  H    7.152888   7.869782   7.264223   4.382447   4.556068
    43  O    4.123655   4.799426   3.522610   5.176764   4.719521
    44  H    4.530030   5.321728   3.992491   5.061216   4.589905
    45  H    4.949153   5.542264   4.315776   6.123146   5.630651
    46  O    5.521329   6.445314   5.136392   3.886075   3.315883
    47  H    6.386606   7.298668   6.022156   4.478042   3.938335
    48  H    5.107917   6.046215   4.893334   3.310361   2.963980
                   36         37         38         39         40
    36  H    0.000000
    37  O    3.575821   0.000000
    38  H    2.627919   0.974151   0.000000
    39  H    4.082306   0.974401   1.550795   0.000000
    40  O    5.459176   2.823255   3.265023   1.868230   0.000000
    41  H    6.178487   3.469294   3.949973   2.508764   0.961447
    42  H    5.316469   3.323866   3.514822   2.421641   0.993793
    43  O    4.863604   7.642383   6.886031   8.018150   8.855662
    44  H    4.915948   7.438999   6.716941   7.705926   8.355418
    45  H    5.799802   8.540190   7.806750   8.924951   9.737728
    46  O    4.496566   5.066604   4.683584   4.989814   5.099208
    47  H    5.203227   5.161289   4.941303   4.944702   4.745764
    48  H    3.946845   4.680511   4.197779   4.538550   4.643568
                   41         42         43         44         45
    41  H    0.000000
    42  H    1.562534   0.000000
    43  O    9.738311   8.385448   0.000000
    44  H    9.233890   7.813918   0.993383   0.000000
    45  H   10.630577   9.259274   0.961411   1.561754   0.000000
    46  O    5.993340   4.533429   4.502454   3.755747   5.195935
    47  H    5.609791   4.167110   5.437687   4.660397   6.086775
    48  H    5.496208   3.997936   4.635265   3.920782   5.426857
                   46         47         48
    46  O    0.000000
    47  H    0.976264   0.000000
    48  H    0.983200   1.546325   0.000000
 Stoichiometry    H32O16
 Framework group  C1[X(H32O16)]
 Deg. of freedom   138
 Full point group                 C1      NOp   1
 Largest Abelian subgroup         C1      NOp   1
 Largest concise Abelian subgroup C1      NOp   1
                         Standard orientation:                         
 ---------------------------------------------------------------------
 Center     Atomic      Atomic             Coordinates (Angstroms)
 Number     Number       Type             X           Y           Z
 ---------------------------------------------------------------------
      1          8           0       -0.008603    1.339538   -1.438782
      2          1           0       -0.128194    0.372665   -1.557593
      3          1           0       -0.876648    1.742749   -1.627544
      4          8           0        2.633431   -2.276635    1.505771
      5          1           0        3.013819   -2.898317    2.132988
      6          1           0        3.234151   -1.484861    1.504568
      7          8           0       -4.194487    0.004757   -1.249213
      8          1           0       -3.715173    0.824752   -1.462834
      9          1           0       -4.369420    0.076356   -0.294213
     10          8           0       -2.607872    2.370285   -1.414100
     11          1           0       -2.602373    2.457382   -0.422103
     12          1           0       -2.921618    3.212225   -1.756965
     13          8           0        0.028613   -1.313927    1.416356
     14          1           0        0.908137   -1.695786    1.603427
     15          1           0        0.126570   -0.344785    1.537811
     16          8           0        4.182398   -0.134686    1.257013
     17          1           0        3.783080    0.731853    1.451111
     18          1           0        4.366345   -0.102868    0.301499
     19          8           0       -2.633662   -2.167074    1.420962
     20          1           0       -1.687525   -1.969164    1.550619
     21          1           0       -2.704228   -2.419667    0.485245
     22          8           0        2.481514   -2.270259   -1.373533
     23          1           0        1.539873   -2.071213   -1.529857
     24          1           0        2.523593   -2.495474   -0.429031
     25          8           0       -2.836443   -2.271893   -1.454516
     26          1           0       -3.281021   -2.890049   -2.041465
     27          1           0       -3.372230   -1.436070   -1.475100
     28          8           0        2.663303    2.187309   -1.272295
     29          1           0        1.743197    1.967651   -1.506067
     30          1           0        3.181166    1.403464   -1.530594
     31          8           0        2.817820    2.363586    1.366667
     32          1           0        3.184485    3.199250    1.669918
     33          1           0        2.802992    2.409757    0.372312
     34          8           0        0.167872    1.428180    1.315398
     35          1           0        0.151633    1.450778    0.332499
     36          1           0        1.021135    1.839725    1.546451
     37          8           0       -2.509715    2.310257    1.233101
     38          1           0       -1.594683    2.081896    1.477104
     39          1           0       -3.050657    1.549041    1.511291
     40          8           0       -4.127128    0.024267    1.592255
     41          1           0       -4.809519   -0.074629    2.262287
     42          1           0       -3.587507   -0.809671    1.623605
     43          8           0        4.137298   -0.200162   -1.581333
     44          1           0        3.527731   -0.984278   -1.601330
     45          1           0        4.816187   -0.374487   -2.239383
     46          8           0       -0.194601   -1.400482   -1.324462
     47          1           0       -1.061365   -1.794126   -1.540925
     48          1           0       -0.159832   -1.418570   -0.342043
 ---------------------------------------------------------------------
 Rotational constants (GHZ):           0.3467207           0.1782343           0.1597998
 Leave Link  202 at Tue Apr 20 10:36:08 2021, MaxMem= 12079595520 cpu:               6.7 elap:               0.2
 (Enter /s/ls4/groups/g0130/bin/g16/l301.exe)
 General basis read from cards:  (5D, 7F)
 Centers:       2      3      5      6      8      9     11     12     14     15
 Centers:      17     18     20     21     23     24     26     27     29     30
 Centers:      32     33     35     36     38     39     41     42     44     45
 Centers:      47     48
 S 4 1.00
     Exponent=  1.9069169000D+02 Coefficients=  7.0815167000D-04
     Exponent=  2.8605532000D+01 Coefficients=  5.4678827000D-03
     Exponent=  6.5095943000D+00 Coefficients=  2.7966605000D-02
     Exponent=  1.8412455000D+00 Coefficients=  1.0764538000D-01
 S 1 1.00
     Exponent=  5.9853725000D-01 Coefficients=  1.0000000000D+00
 S 1 1.00
     Exponent=  2.1397624000D-01 Coefficients=  1.0000000000D+00
 S 1 1.00
     Exponent=  8.0316286000D-02 Coefficients=  1.0000000000D+00
 P 1 1.00
     Exponent=  2.2920000000D+00 Coefficients=  1.0000000000D+00
 P 1 1.00
     Exponent=  8.3800000000D-01 Coefficients=  1.0000000000D+00
 P 1 1.00
     Exponent=  2.9200000000D-01 Coefficients=  1.0000000000D+00
 P 1 1.00
     Exponent=  8.4063199228D-02 Coefficients=  1.0000000000D+00
 D 1 1.00
     Exponent=  2.0620000000D+00 Coefficients=  1.0000000000D+00
 D 1 1.00
     Exponent=  6.6200000000D-01 Coefficients=  1.0000000000D+00
 F 1 1.00
     Exponent=  1.3970000000D+00 Coefficients=  1.0000000000D+00
 ****
 Centers:       1      4      7     10     13     16     19     22     25     28
 Centers:      31     34     37     40     43     46
 S 8 1.00
     Exponent=  1.1650646908D+05 Coefficients=  4.0383857939D-05
     Exponent=  1.7504349724D+04 Coefficients=  3.1255139004D-04
     Exponent=  3.9934513230D+03 Coefficients=  1.6341473495D-03
     Exponent=  1.1330063186D+03 Coefficients=  6.8283224757D-03
     Exponent=  3.6999569594D+02 Coefficients=  2.4124410221D-02
     Exponent=  1.3362074349D+02 Coefficients=  7.2730206154D-02
     Exponent=  5.2035643649D+01 Coefficients=  1.7934429892D-01
     Exponent=  2.1461939313D+01 Coefficients=  3.3059588895D-01
 S 2 1.00
     Exponent=  8.9835051252D+01 Coefficients=  9.6468652996D-02
     Exponent=  2.6428010844D+01 Coefficients=  9.4117481120D-01
 S 1 1.00
     Exponent=  9.2822824649D+00 Coefficients=  1.0000000000D+00
 S 1 1.00
     Exponent=  4.0947728533D+00 Coefficients=  1.0000000000D+00
 S 1 1.00
     Exponent=  1.3255349078D+00 Coefficients=  1.0000000000D+00
 S 1 1.00
     Exponent=  5.1877230787D-01 Coefficients=  1.0000000000D+00
 S 1 1.00
     Exponent=  1.9772676454D-01 Coefficients=  1.0000000000D+00
 S 1 1.00
     Exponent=  6.9638535104D-02 Coefficients=  1.0000000000D+00
 P 5 1.00
     Exponent=  1.9115255810D+02 Coefficients=  2.5115697705D-03
     Exponent=  4.5233356739D+01 Coefficients=  2.0039240864D-02
     Exponent=  1.4353465922D+01 Coefficients=  9.3609064762D-02
     Exponent=  5.2422371832D+00 Coefficients=  3.0618127124D-01
     Exponent=  2.0792418599D+00 Coefficients=  6.7810501439D-01
 P 1 1.00
     Exponent=  8.4282371424D-01 Coefficients=  1.0000000000D+00
 P 1 1.00
     Exponent=  3.3617694891D-01 Coefficients=  1.0000000000D+00
 P 1 1.00
     Exponent=  1.2863997974D-01 Coefficients=  1.0000000000D+00
 P 1 1.00
     Exponent=  4.3598162776D-02 Coefficients=  1.0000000000D+00
 D 1 1.00
     Exponent=  3.7750000000D+00 Coefficients=  1.0000000000D+00
 D 1 1.00
     Exponent=  1.3000000000D+00 Coefficients=  1.0000000000D+00
 D 1 1.00
     Exponent=  4.4400000000D-01 Coefficients=  1.0000000000D+00
 D 1 1.00
     Exponent=  1.2546378695D-01 Coefficients=  1.0000000000D+00
 F 1 1.00
     Exponent=  2.6660000000D+00 Coefficients=  1.0000000000D+00
 F 1 1.00
     Exponent=  8.5900000000D-01 Coefficients=  1.0000000000D+00
 G 1 1.00
     Exponent=  1.8460000000D+00 Coefficients=  1.0000000000D+00
 ****
 Ernie: Thresh=  0.10000D-02 Tol=  0.10000D-05 Strict=F.
 There are  2528 symmetry adapted cartesian basis functions of A   symmetry.
 There are  2112 symmetry adapted basis functions of A   symmetry.
  2112 basis functions,  2944 primitive gaussians,  2528 cartesian basis functions
    80 alpha electrons       80 beta electrons
       nuclear repulsion energy      1601.3616990184 Hartrees.
 IExCor= 4336 DFT=T Ex+Corr=M062X ExCW=0 ScaHFX=  0.540000
 ScaDFX=  1.000000  1.000000  1.000000  1.000000 ScalE2=  1.000000  1.000000
 IRadAn=      5 IRanWt=     -1 IRanGd=            0 ICorTp=0 IEmpDi=  4
 NAtoms=   48 NActive=   48 NUniq=   48 SFac= 1.00D+00 NAtFMM=   60 NAOKFM=F Big=F
 Integral buffers will be    131072 words long.
 Raffenetti 2 integral format.
 Two-electron integral symmetry is turned on.
 Leave Link  301 at Tue Apr 20 10:36:08 2021, MaxMem= 12079595520 cpu:               7.9 elap:               0.2
 (Enter /s/ls4/groups/g0130/bin/g16/l302.exe)
 NPDir=0 NMtPBC=     1 NCelOv=     1 NCel=       1 NClECP=     1 NCelD=      1
         NCelK=      1 NCelE2=     1 NClLst=     1 CellRange=     0.0.
 One-electron integrals computed using PRISM.
 One-electron integral symmetry used in STVInt
 NBasis=  2112 RedAO= T EigKep=  1.30D-06  NBF=  2112
 NBsUse=  2111 1.00D-06 EigRej=  9.92D-07 NBFU=  2111
 Precomputing XC quadrature grid using
 IXCGrd= 4 IRadAn=           5 IRanWt=          -1 IRanGd=           0 AccXCQ= 0.00D+00.
 Generated NRdTot=       0 NPtTot=           0 NUsed=           0 NTot=          32
 NSgBfM=  2434  2433  2434  2434  2434 MxSgAt=    48 MxSgA2=    48.
 Leave Link  302 at Tue Apr 20 10:37:25 2021, MaxMem= 12079595520 cpu:            3613.3 elap:              76.9
 (Enter /s/ls4/groups/g0130/bin/g16/l303.exe)
 DipDrv:  MaxL=1.
 Leave Link  303 at Tue Apr 20 10:38:07 2021, MaxMem= 12079595520 cpu:            1936.2 elap:              41.3
 (Enter /s/ls4/groups/g0130/bin/g16/l401.exe)
 SCF N**3 symmetry information disabled.
 ExpMin= 4.36D-02 ExpMax= 1.17D+05 ExpMxC= 1.13D+03 IAcc=3 IRadAn=         5 AccDes= 0.00D+00
 Harris functional with IExCor= 1009 and IRadAn=       5 diagonalized for initial guess.
 HarFok:  IExCor= 1009 AccDes= 0.00D+00 IRadAn=         5 IDoV= 1 UseB2=F ITyADJ=14
 ICtDFT=  3500011 ScaDFX=  1.000000  1.000000  1.000000  1.000000
 FoFCou: FMM=F IPFlag=           0 FMFlag=      100000 FMFlg1=           0
         NFxFlg=           0 DoJE=T BraDBF=F KetDBF=T FulRan=T
         wScrn=  0.000000 ICntrl=       500 IOpCl=  0 I1Cent=   200000004 NGrid=           0
         NMat0=    1 NMatS0=      1 NMatT0=    0 NMatD0=    1 NMtDS0=    0 NMtDT0=    0
 Petite list used in FoFCou.
 Harris En= -1222.93233405929    
 JPrj=0 DoOrth=F DoCkMO=F.
 Leave Link  401 at Tue Apr 20 10:38:31 2021, MaxMem= 12079595520 cpu:            1170.1 elap:              24.5
 (Enter /s/ls4/groups/g0130/bin/g16/l502.exe)
 Integral symmetry usage will be decided dynamically.
 Closed shell SCF:
 Using DIIS extrapolation, IDIIS=  1040.
 NGot= 12079595520 LenX= 12066673188 LenY= 12060279876
 Requested convergence on RMS density matrix=1.00D-08 within 128 cycles.
 Requested convergence on MAX density matrix=1.00D-06.
 Requested convergence on             energy=1.00D-06.
 No special actions if energy rises.
 Fock matrices will be formed incrementally for  20 cycles.

 Cycle   1  Pass 1  IDiag  1:
 FoFJK:  IHMeth= 1 ICntrl=       0 DoSepK=F KAlg= 0 I1Cent=           0 FoldK=F
 IRaf= 730000000 NMat=       1 IRICut=       1 DoRegI=T DoRafI=F ISym2E= 0 IDoP0=0 IntGTp=1.
 FoFCou: FMM=F IPFlag=           0 FMFlag=      100000 FMFlg1=           0
         NFxFlg=           0 DoJE=F BraDBF=F KetDBF=F FulRan=T
         wScrn=  0.000000 ICntrl=         0 IOpCl=  0 I1Cent=           0 NGrid=           0
         NMat0=    1 NMatS0=      1 NMatT0=    0 NMatD0=    1 NMtDS0=    0 NMtDT0=    0
 Symmetry not used in FoFCou.
 E= -1222.31483389818    
 DIIS: error= 1.97D-02 at cycle   1 NSaved=   1.
 NSaved= 1 IEnMin= 1 EnMin= -1222.31483389818     IErMin= 1 ErrMin= 1.97D-02
 ErrMax= 1.97D-02  0.00D+00 EMaxC= 1.00D-01 BMatC= 1.94D+00 BMatP= 1.94D+00
 IDIUse=3 WtCom= 8.03D-01 WtEn= 1.97D-01
 Coeff-Com:  0.100D+01
 Coeff-En:   0.100D+01
 Coeff:      0.100D+01
 Gap=     0.306 Goal=   None    Shift=    0.000
 GapD=    0.306 DampG=1.000 DampE=0.500 DampFc=0.5000 IDamp=-1.
 Damping current iteration by 5.00D-01
 RMSDP=1.06D-03 MaxDP=1.86D-01              OVMax= 1.45D-01

 Cycle   2  Pass 1  IDiag  1:
 RMSU=  4.89D-04    CP:  9.05D-01
 E= -1222.75562734171     Delta-E=       -0.440793443526 Rises=F Damp=T
 DIIS: error= 9.77D-03 at cycle   2 NSaved=   2.
 NSaved= 2 IEnMin= 2 EnMin= -1222.75562734171     IErMin= 2 ErrMin= 9.77D-03
 ErrMax= 9.77D-03  0.00D+00 EMaxC= 1.00D-01 BMatC= 1.87D-01 BMatP= 1.94D+00
 IDIUse=3 WtCom= 9.02D-01 WtEn= 9.77D-02
 Coeff-Com: -0.293D-01 0.103D+01
 Coeff-En:   0.588D-01 0.941D+00
 Coeff:     -0.207D-01 0.102D+01
 Gap=     0.389 Goal=   None    Shift=    0.000
 RMSDP=6.33D-04 MaxDP=1.00D-01 DE=-4.41D-01 OVMax= 8.19D-02

 Cycle   3  Pass 1  IDiag  1:
 RMSU=  5.36D-04    CP:  8.30D-01  1.61D+00
 E= -1223.24613808797     Delta-E=       -0.490510746267 Rises=F Damp=F
 DIIS: error= 1.27D-03 at cycle   3 NSaved=   3.
 NSaved= 3 IEnMin= 3 EnMin= -1223.24613808797     IErMin= 3 ErrMin= 1.27D-03
 ErrMax= 1.27D-03  0.00D+00 EMaxC= 1.00D-01 BMatC= 1.03D-02 BMatP= 1.87D-01
 IDIUse=3 WtCom= 9.87D-01 WtEn= 1.27D-02
 Coeff-Com: -0.700D-01 0.137D+00 0.933D+00
 Coeff-En:   0.000D+00 0.000D+00 0.100D+01
 Coeff:     -0.691D-01 0.135D+00 0.934D+00
 Gap=     0.381 Goal=   None    Shift=    0.000
 RMSDP=6.70D-05 MaxDP=8.11D-03 DE=-4.91D-01 OVMax= 6.23D-03

 Cycle   4  Pass 1  IDiag  1:
 RMSU=  5.30D-05    CP:  8.26D-01  1.68D+00  9.55D-01
 E= -1223.25224965118     Delta-E=       -0.006111563206 Rises=F Damp=F
 DIIS: error= 1.92D-04 at cycle   4 NSaved=   4.
 NSaved= 4 IEnMin= 4 EnMin= -1223.25224965118     IErMin= 4 ErrMin= 1.92D-04
 ErrMax= 1.92D-04  0.00D+00 EMaxC= 1.00D-01 BMatC= 2.72D-04 BMatP= 1.03D-02
 IDIUse=3 WtCom= 9.98D-01 WtEn= 1.92D-03
 Coeff-Com: -0.267D-01 0.516D-01 0.368D+00 0.607D+00
 Coeff-En:   0.000D+00 0.000D+00 0.000D+00 0.100D+01
 Coeff:     -0.266D-01 0.515D-01 0.368D+00 0.607D+00
 Gap=     0.381 Goal=   None    Shift=    0.000
 RMSDP=1.48D-05 MaxDP=2.06D-03 DE=-6.11D-03 OVMax= 1.76D-03

 Cycle   5  Pass 1  IDiag  1:
 RMSU=  1.35D-05    CP:  8.26D-01  1.68D+00  9.48D-01  1.09D+00
 E= -1223.25239592458     Delta-E=       -0.000146273397 Rises=F Damp=F
 DIIS: error= 6.37D-05 at cycle   5 NSaved=   5.
 NSaved= 5 IEnMin= 5 EnMin= -1223.25239592458     IErMin= 5 ErrMin= 6.37D-05
 ErrMax= 6.37D-05  0.00D+00 EMaxC= 1.00D-01 BMatC= 2.76D-05 BMatP= 2.72D-04
 IDIUse=1 WtCom= 1.00D+00 WtEn= 0.00D+00
 Coeff-Com:  0.313D-02-0.537D-02-0.361D-01 0.207D+00 0.831D+00
 Coeff:      0.313D-02-0.537D-02-0.361D-01 0.207D+00 0.831D+00
 Gap=     0.381 Goal=   None    Shift=    0.000
 RMSDP=9.16D-06 MaxDP=1.58D-03 DE=-1.46D-04 OVMax= 5.37D-04

 Cycle   6  Pass 1  IDiag  1:
 RMSU=  5.27D-06    CP:  8.26D-01  1.68D+00  9.48D-01  1.22D+00  1.22D+00
 E= -1223.25241320967     Delta-E=       -0.000017285096 Rises=F Damp=F
 DIIS: error= 1.04D-05 at cycle   6 NSaved=   6.
 NSaved= 6 IEnMin= 6 EnMin= -1223.25241320967     IErMin= 6 ErrMin= 1.04D-05
 ErrMax= 1.04D-05  0.00D+00 EMaxC= 1.00D-01 BMatC= 7.68D-07 BMatP= 2.76D-05
 IDIUse=1 WtCom= 1.00D+00 WtEn= 0.00D+00
 Coeff-Com:  0.154D-02-0.293D-02-0.206D-01 0.631D-02 0.161D+00 0.855D+00
 Coeff:      0.154D-02-0.293D-02-0.206D-01 0.631D-02 0.161D+00 0.855D+00
 Gap=     0.381 Goal=   None    Shift=    0.000
 RMSDP=1.14D-06 MaxDP=1.20D-04 DE=-1.73D-05 OVMax= 1.17D-04

 Cycle   7  Pass 1  IDiag  1:
 RMSU=  8.41D-07    CP:  8.26D-01  1.68D+00  9.47D-01  1.23D+00  1.25D+00
                    CP:  1.04D+00
 E= -1223.25241372331     Delta-E=       -0.000000513635 Rises=F Damp=F
 DIIS: error= 4.18D-06 at cycle   7 NSaved=   7.
 NSaved= 7 IEnMin= 7 EnMin= -1223.25241372331     IErMin= 7 ErrMin= 4.18D-06
 ErrMax= 4.18D-06  0.00D+00 EMaxC= 1.00D-01 BMatC= 1.42D-07 BMatP= 7.68D-07
 IDIUse=1 WtCom= 1.00D+00 WtEn= 0.00D+00
 Coeff-Com:  0.239D-03-0.523D-03-0.394D-02-0.852D-02 0.119D-01 0.317D+00
 Coeff-Com:  0.683D+00
 Coeff:      0.239D-03-0.523D-03-0.394D-02-0.852D-02 0.119D-01 0.317D+00
 Coeff:      0.683D+00
 Gap=     0.381 Goal=   None    Shift=    0.000
 RMSDP=3.22D-07 MaxDP=5.21D-05 DE=-5.14D-07 OVMax= 4.87D-05

 Cycle   8  Pass 1  IDiag  1:
 RMSU=  2.89D-07    CP:  8.26D-01  1.68D+00  9.47D-01  1.23D+00  1.25D+00
                    CP:  1.03D+00  9.90D-01
 E= -1223.25241380739     Delta-E=       -0.000000084080 Rises=F Damp=F
 DIIS: error= 1.76D-06 at cycle   8 NSaved=   8.
 NSaved= 8 IEnMin= 8 EnMin= -1223.25241380739     IErMin= 8 ErrMin= 1.76D-06
 ErrMax= 1.76D-06  0.00D+00 EMaxC= 1.00D-01 BMatC= 2.18D-08 BMatP= 1.42D-07
 IDIUse=1 WtCom= 1.00D+00 WtEn= 0.00D+00
 Coeff-Com: -0.103D-03 0.162D-03 0.874D-03-0.457D-02-0.153D-01 0.288D-01
 Coeff-Com:  0.292D+00 0.699D+00
 Coeff:     -0.103D-03 0.162D-03 0.874D-03-0.457D-02-0.153D-01 0.288D-01
 Coeff:      0.292D+00 0.699D+00
 Gap=     0.381 Goal=   None    Shift=    0.000
 RMSDP=1.32D-07 MaxDP=1.72D-05 DE=-8.41D-08 OVMax= 1.54D-05

 Cycle   9  Pass 1  IDiag  1:
 RMSU=  9.92D-08    CP:  8.26D-01  1.68D+00  9.47D-01  1.23D+00  1.25D+00
                    CP:  1.03D+00  1.02D+00  1.18D+00
 E= -1223.25241382160     Delta-E=       -0.000000014212 Rises=F Damp=F
 DIIS: error= 5.04D-07 at cycle   9 NSaved=   9.
 NSaved= 9 IEnMin= 9 EnMin= -1223.25241382160     IErMin= 9 ErrMin= 5.04D-07
 ErrMax= 5.04D-07  0.00D+00 EMaxC= 1.00D-01 BMatC= 1.02D-09 BMatP= 2.18D-08
 IDIUse=1 WtCom= 1.00D+00 WtEn= 0.00D+00
 Coeff-Com: -0.398D-04 0.792D-04 0.435D-03-0.144D-03-0.461D-02-0.303D-01
 Coeff-Com: -0.188D-01 0.155D+00 0.899D+00
 Coeff:     -0.398D-04 0.792D-04 0.435D-03-0.144D-03-0.461D-02-0.303D-01
 Coeff:     -0.188D-01 0.155D+00 0.899D+00
 Gap=     0.381 Goal=   None    Shift=    0.000
 RMSDP=4.39D-08 MaxDP=8.86D-06 DE=-1.42D-08 OVMax= 4.59D-06

 Cycle  10  Pass 1  IDiag  1:
 RMSU=  2.76D-08    CP:  8.26D-01  1.68D+00  9.47D-01  1.23D+00  1.25D+00
                    CP:  1.03D+00  1.05D+00  1.22D+00  9.32D-01
 E= -1223.25241382254     Delta-E=       -0.000000000940 Rises=F Damp=F
 DIIS: error= 8.98D-08 at cycle  10 NSaved=  10.
 NSaved=10 IEnMin=10 EnMin= -1223.25241382254     IErMin=10 ErrMin= 8.98D-08
 ErrMax= 8.98D-08  0.00D+00 EMaxC= 1.00D-01 BMatC= 4.84D-11 BMatP= 1.02D-09
 IDIUse=1 WtCom= 1.00D+00 WtEn= 0.00D+00
 Coeff-Com: -0.652D-05 0.156D-04 0.883D-04 0.790D-04-0.769D-03-0.790D-02
 Coeff-Com: -0.142D-01 0.979D-02 0.203D+00 0.809D+00
 Coeff:     -0.652D-05 0.156D-04 0.883D-04 0.790D-04-0.769D-03-0.790D-02
 Coeff:     -0.142D-01 0.979D-02 0.203D+00 0.809D+00
 Gap=     0.381 Goal=   None    Shift=    0.000
 RMSDP=6.53D-09 MaxDP=9.80D-07 DE=-9.40D-10 OVMax= 1.32D-06

 SCF Done:  E(RM062X) =  -1223.25241382     A.U. after   10 cycles
            NFock= 10  Conv=0.65D-08     -V/T= 2.0034
 KE= 1.219060567186D+03 PE=-6.096292369749D+03 EE= 2.052617689722D+03
 Leave Link  502 at Tue Apr 20 12:37:44 2021, MaxMem= 12079595520 cpu:          342725.4 elap:            7152.3
 (Enter /s/ls4/groups/g0130/bin/g16/l601.exe)
 Copying SCF densities to generalized density rwf, IOpCl= 0 IROHF=0.

 **********************************************************************

            Population analysis using the SCF density.

 **********************************************************************

 Orbital symmetries:
       Occupied  (A) (A) (A) (A) (A) (A) (A) (A) (A) (A) (A) (A)
                 (A) (A) (A) (A) (A) (A) (A) (A) (A) (A) (A) (A)
                 (A) (A) (A) (A) (A) (A) (A) (A) (A) (A) (A) (A)
                 (A) (A) (A) (A) (A) (A) (A) (A) (A) (A) (A) (A)
                 (A) (A) (A) (A) (A) (A) (A) (A) (A) (A) (A) (A)
                 (A) (A) (A) (A) (A) (A) (A) (A) (A) (A) (A) (A)
                 (A) (A) (A) (A) (A) (A) (A) (A)
       Virtual   (A) (A) (A) (A) (A) (A) (A) (A) (A) (A) (A) (A)
                 (A) (A) (A) (A) (A) (A) (A) (A) (A) (A) (A) (A)
                 (A) (A) (A) (A) (A) (A) (A) (A) (A) (A) (A) (A)
                 (A) (A) (A) (A) (A) (A) (A) (A) (A) (A) (A) (A)
                 (A) (A) (A) (A) (A) (A) (A) (A) (A) (A) (A) (A)
                 (A) (A) (A) (A) (A) (A) (A) (A) (A) (A) (A) (A)
                 (A) (A) (A) (A) (A) (A) (A) (A) (A) (A) (A) (A)
                 (A) (A) (A) (A) (A) (A) (A) (A) (A) (A) (A) (A)
                 (A) (A) (A) (A) (A) (A) (A) (A) (A) (A) (A) (A)
                 (A) (A) (A) (A) (A) (A) (A) (A) (A) (A) (A) (A)
                 (A) (A) (A) (A) (A) (A) (A) (A) (A) (A) (A) (A)
                 (A) (A) (A) (A) (A) (A) (A) (A) (A) (A) (A) (A)
                 (A) (A) (A) (A) (A) (A) (A) (A) (A) (A) (A) (A)
                 (A) (A) (A) (A) (A) (A) (A) (A) (A) (A) (A) (A)
                 (A) (A) (A) (A) (A) (A) (A) (A) (A) (A) (A) (A)
                 (A) (A) (A) (A) (A) (A) (A) (A) (A) (A) (A) (A)
                 (A) (A) (A) (A) (A) (A) (A) (A) (A) (A) (A) (A)
                 (A) (A) (A) (A) (A) (A) (A) (A) (A) (A) (A) (A)
                 (A) (A) (A) (A) (A) (A) (A) (A) (A) (A) (A) (A)
                 (A) (A) (A) (A) (A) (A) (A) (A) (A) (A) (A) (A)
                 (A) (A) (A) (A) (A) (A) (A) (A) (A) (A) (A) (A)
                 (A) (A) (A) (A) (A) (A) (A) (A) (A) (A) (A) (A)
                 (A) (A) (A) (A) (A) (A) (A) (A) (A) (A) (A) (A)
                 (A) (A) (A) (A) (A) (A) (A) (A) (A) (A) (A) (A)
                 (A) (A) (A) (A) (A) (A) (A) (A) (A) (A) (A) (A)
                 (A) (A) (A) (A) (A) (A) (A) (A) (A) (A) (A) (A)
                 (A) (A) (A) (A) (A) (A) (A) (A) (A) (A) (A) (A)
                 (A) (A) (A) (A) (A) (A) (A) (A) (A) (A) (A) (A)
                 (A) (A) (A) (A) (A) (A) (A) (A) (A) (A) (A) (A)
                 (A) (A) (A) (A) (A) (A) (A) (A) (A) (A) (A) (A)
                 (A) (A) (A) (A) (A) (A) (A) (A) (A) (A) (A) (A)
                 (A) (A) (A) (A) (A) (A) (A) (A) (A) (A) (A) (A)
                 (A) (A) (A) (A) (A) (A) (A) (A) (A) (A) (A) (A)
                 (A) (A) (A) (A) (A) (A) (A) (A) (A) (A) (A) (A)
                 (A) (A) (A) (A) (A) (A) (A) (A) (A) (A) (A) (A)
                 (A) (A) (A) (A) (A) (A) (A) (A) (A) (A) (A) (A)
                 (A) (A) (A) (A) (A) (A) (A) (A) (A) (A) (A) (A)
                 (A) (A) (A) (A) (A) (A) (A) (A) (A) (A) (A) (A)
                 (A) (A) (A) (A) (A) (A) (A) (A) (A) (A) (A) (A)
                 (A) (A) (A) (A) (A) (A) (A) (A) (A) (A) (A) (A)
                 (A) (A) (A) (A) (A) (A) (A) (A) (A) (A) (A) (A)
                 (A) (A) (A) (A) (A) (A) (A) (A) (A) (A) (A) (A)
                 (A) (A) (A) (A) (A) (A) (A) (A) (A) (A) (A) (A)
                 (A) (A) (A) (A) (A) (A) (A) (A) (A) (A) (A) (A)
                 (A) (A) (A) (A) (A) (A) (A) (A) (A) (A) (A) (A)
                 (A) (A) (A) (A) (A) (A) (A) (A) (A) (A) (A) (A)
                 (A) (A) (A) (A) (A) (A) (A) (A) (A) (A) (A) (A)
                 (A) (A) (A) (A) (A) (A) (A) (A) (A) (A) (A) (A)
                 (A) (A) (A) (A) (A) (A) (A) (A) (A) (A) (A) (A)
                 (A) (A) (A) (A) (A) (A) (A) (A) (A) (A) (A) (A)
                 (A) (A) (A) (A) (A) (A) (A) (A) (A) (A) (A) (A)
                 (A) (A) (A) (A) (A) (A) (A) (A) (A) (A) (A) (A)
                 (A) (A) (A) (A) (A) (A) (A) (A) (A) (A) (A) (A)
                 (A) (A) (A) (A) (A) (A) (A) (A) (A) (A) (A) (A)
                 (A) (A) (A) (A) (A) (A) (A) (A) (A) (A) (A) (A)
                 (A) (A) (A) (A) (A) (A) (A) (A) (A) (A) (A) (A)
                 (A) (A) (A) (A) (A) (A) (A) (A) (A) (A) (A) (A)
                 (A) (A) (A) (A) (A) (A) (A) (A) (A) (A) (A) (A)
                 (A) (A) (A) (A) (A) (A) (A) (A) (A) (A) (A) (A)
                 (A) (A) (A) (A) (A) (A) (A) (A) (A) (A) (A) (A)
                 (A) (A) (A) (A) (A) (A) (A) (A) (A) (A) (A) (A)
                 (A) (A) (A) (A) (A) (A) (A) (A) (A) (A) (A) (A)
                 (A) (A) (A) (A) (A) (A) (A) (A) (A) (A) (A) (A)
                 (A) (A) (A) (A) (A) (A) (A) (A) (A) (A) (A) (A)
                 (A) (A) (A) (A) (A) (A) (A) (A) (A) (A) (A) (A)
                 (A) (A) (A) (A) (A) (A) (A) (A) (A) (A) (A) (A)
                 (A) (A) (A) (A) (A) (A) (A) (A) (A) (A) (A) (A)
                 (A) (A) (A) (A) (A) (A) (A) (A) (A) (A) (A) (A)
                 (A) (A) (A) (A) (A) (A) (A) (A) (A) (A) (A) (A)
                 (A) (A) (A) (A) (A) (A) (A) (A) (A) (A) (A) (A)
                 (A) (A) (A) (A) (A) (A) (A) (A) (A) (A) (A) (A)
                 (A) (A) (A) (A) (A) (A) (A) (A) (A) (A) (A) (A)
                 (A) (A) (A) (A) (A) (A) (A) (A) (A) (A) (A) (A)
                 (A) (A) (A) (A) (A) (A) (A) (A) (A) (A) (A) (A)
                 (A) (A) (A) (A) (A) (A) (A) (A) (A) (A) (A) (A)
                 (A) (A) (A) (A) (A) (A) (A) (A) (A) (A) (A) (A)
                 (A) (A) (A) (A) (A) (A) (A) (A) (A) (A) (A) (A)
                 (A) (A) (A) (A) (A) (A) (A) (A) (A) (A) (A) (A)
                 (A) (A) (A) (A) (A) (A) (A) (A) (A) (A) (A) (A)
                 (A) (A) (A) (A) (A) (A) (A) (A) (A) (A) (A) (A)
                 (A) (A) (A) (A) (A) (A) (A) (A) (A) (A) (A) (A)
                 (A) (A) (A) (A) (A) (A) (A) (A) (A) (A) (A) (A)
                 (A) (A) (A) (A) (A) (A) (A) (A) (A) (A) (A) (A)
                 (A) (A) (A) (A) (A) (A) (A) (A) (A) (A) (A) (A)
                 (A) (A) (A) (A) (A) (A) (A) (A) (A) (A) (A) (A)
                 (A) (A) (A) (A) (A) (A) (A) (A) (A) (A) (A) (A)
                 (A) (A) (A) (A) (A) (A) (A) (A) (A) (A) (A) (A)
                 (A) (A) (A) (A) (A) (A) (A) (A) (A) (A) (A) (A)
                 (A) (A) (A) (A) (A) (A) (A) (A) (A) (A) (A) (A)
                 (A) (A) (A) (A) (A) (A) (A) (A) (A) (A) (A) (A)
                 (A) (A) (A) (A) (A) (A) (A) (A) (A) (A) (A) (A)
                 (A) (A) (A) (A) (A) (A) (A) (A) (A) (A) (A) (A)
                 (A) (A) (A) (A) (A) (A) (A) (A) (A) (A) (A) (A)
                 (A) (A) (A) (A) (A) (A) (A) (A) (A) (A) (A) (A)
                 (A) (A) (A) (A) (A) (A) (A) (A) (A) (A) (A) (A)
                 (A) (A) (A) (A) (A) (A) (A) (A) (A) (A) (A) (A)
                 (A) (A) (A) (A) (A) (A) (A) (A) (A) (A) (A) (A)
                 (A) (A) (A) (A) (A) (A) (A) (A) (A) (A) (A) (A)
                 (A) (A) (A) (A) (A) (A) (A) (A) (A) (A) (A) (A)
                 (A) (A) (A) (A) (A) (A) (A) (A) (A) (A) (A) (A)
                 (A) (A) (A) (A) (A) (A) (A) (A) (A) (A) (A) (A)
                 (A) (A) (A) (A) (A) (A) (A) (A) (A) (A) (A) (A)
                 (A) (A) (A) (A) (A) (A) (A) (A) (A) (A) (A) (A)
                 (A) (A) (A) (A) (A) (A) (A) (A) (A) (A) (A) (A)
                 (A) (A) (A) (A) (A) (A) (A) (A) (A) (A) (A) (A)
                 (A) (A) (A) (A) (A) (A) (A) (A) (A) (A) (A) (A)
                 (A) (A) (A) (A) (A) (A) (A) (A) (A) (A) (A) (A)
                 (A) (A) (A) (A) (A) (A) (A) (A) (A) (A) (A) (A)
                 (A) (A) (A) (A) (A) (A) (A) (A) (A) (A) (A) (A)
                 (A) (A) (A) (A) (A) (A) (A) (A) (A) (A) (A) (A)
                 (A) (A) (A) (A) (A) (A) (A) (A) (A) (A) (A) (A)
                 (A) (A) (A) (A) (A) (A) (A) (A) (A) (A) (A) (A)
                 (A) (A) (A) (A) (A) (A) (A) (A) (A) (A) (A) (A)
                 (A) (A) (A) (A) (A) (A) (A) (A) (A) (A) (A) (A)
                 (A) (A) (A) (A) (A) (A) (A) (A) (A) (A) (A) (A)
                 (A) (A) (A) (A) (A) (A) (A) (A) (A) (A) (A) (A)
                 (A) (A) (A) (A) (A) (A) (A) (A) (A) (A) (A) (A)
                 (A) (A) (A) (A) (A) (A) (A) (A) (A) (A) (A) (A)
                 (A) (A) (A) (A) (A) (A) (A) (A) (A) (A) (A) (A)
                 (A) (A) (A) (A) (A) (A) (A) (A) (A) (A) (A) (A)
                 (A) (A) (A) (A) (A) (A) (A) (A) (A) (A) (A) (A)
                 (A) (A) (A) (A) (A) (A) (A) (A) (A) (A) (A) (A)
                 (A) (A) (A) (A) (A) (A) (A) (A) (A) (A) (A) (A)
                 (A) (A) (A) (A) (A) (A) (A) (A) (A) (A) (A) (A)
                 (A) (A) (A) (A) (A) (A) (A) (A) (A) (A) (A) (A)
                 (A) (A) (A) (A) (A) (A) (A) (A) (A) (A) (A) (A)
                 (A) (A) (A) (A) (A) (A) (A) (A) (A) (A) (A) (A)
                 (A) (A) (A) (A) (A) (A) (A) (A) (A) (A) (A) (A)
                 (A) (A) (A) (A) (A) (A) (A) (A) (A) (A) (A) (A)
                 (A) (A) (A) (A) (A) (A) (A) (A) (A) (A) (A) (A)
                 (A) (A) (A) (A) (A) (A) (A) (A) (A) (A) (A) (A)
                 (A) (A) (A) (A) (A) (A) (A) (A) (A) (A) (A) (A)
                 (A) (A) (A) (A) (A) (A) (A) (A) (A) (A) (A) (A)
                 (A) (A) (A) (A) (A) (A) (A) (A) (A) (A) (A) (A)
                 (A) (A) (A) (A) (A) (A) (A) (A) (A) (A) (A) (A)
                 (A) (A) (A) (A) (A) (A) (A) (A) (A) (A) (A) (A)
                 (A) (A) (A) (A) (A) (A) (A) (A) (A) (A) (A) (A)
                 (A) (A) (A) (A) (A) (A) (A) (A) (A) (A) (A) (A)
                 (A) (A) (A) (A) (A) (A) (A) (A) (A) (A) (A) (A)
                 (A) (A) (A) (A) (A) (A) (A) (A) (A) (A) (A) (A)
                 (A) (A) (A) (A) (A) (A) (A) (A) (A) (A) (A) (A)
                 (A) (A) (A) (A) (A) (A) (A) (A) (A) (A) (A) (A)
                 (A) (A) (A) (A) (A) (A) (A) (A) (A) (A) (A) (A)
                 (A) (A) (A) (A) (A) (A) (A) (A) (A) (A) (A) (A)
                 (A) (A) (A) (A) (A) (A) (A) (A) (A) (A) (A) (A)
                 (A) (A) (A) (A) (A) (A) (A) (A) (A) (A) (A) (A)
                 (A) (A) (A) (A) (A) (A) (A) (A) (A) (A) (A) (A)
                 (A) (A) (A) (A) (A) (A) (A) (A) (A) (A) (A) (A)
                 (A) (A) (A) (A) (A) (A) (A) (A) (A) (A) (A) (A)
                 (A) (A) (A) (A) (A) (A) (A) (A) (A) (A) (A) (A)
                 (A) (A) (A) (A) (A) (A) (A) (A) (A) (A) (A) (A)
                 (A) (A) (A) (A) (A) (A) (A) (A) (A) (A) (A) (A)
                 (A) (A) (A) (A) (A) (A) (A) (A) (A) (A) (A) (A)
                 (A) (A) (A) (A) (A) (A) (A) (A) (A) (A) (A) (A)
                 (A) (A) (A) (A) (A) (A) (A) (A) (A) (A) (A) (A)
                 (A) (A) (A) (A) (A) (A) (A) (A) (A) (A) (A) (A)
                 (A) (A) (A) (A) (A) (A) (A) (A) (A) (A) (A) (A)
                 (A) (A) (A) (A) (A) (A) (A) (A) (A) (A) (A) (A)
                 (A) (A) (A) (A) (A) (A) (A) (A) (A) (A) (A) (A)
                 (A) (A) (A) (A) (A) (A) (A) (A) (A) (A) (A) (A)
                 (A) (A) (A) (A) (A) (A) (A) (A) (A) (A) (A) (A)
                 (A) (A) (A) (A) (A) (A) (A) (A) (A) (A) (A) (A)
                 (A) (A) (A) (A) (A) (A) (A) (A) (A) (A) (A) (A)
                 (A) (A) (A) (A) (A) (A) (A) (A) (A) (A) (A) (A)
                 (A) (A) (A) (A) (A) (A) (A) (A) (A) (A) (A) (A)
                 (A) (A) (A) (A) (A) (A) (A) (A) (A) (A) (A) (A)
                 (A) (A) (A) (A) (A) (A) (A) (A) (A) (A) (A) (A)
                 (A) (A) (A) (A) (A) (A) (A) (A) (A) (A) (A) (A)
                 (A) (A) (A) (A) (A) (A) (A) (A) (A) (A) (A) (A)
                 (A) (A) (A)
 The electronic state is 1-A.
 Alpha  occ. eigenvalues --  -19.63656 -19.63609 -19.63592 -19.63525 -19.63397
 Alpha  occ. eigenvalues --  -19.63371 -19.62456 -19.62398 -19.62351 -19.62338
 Alpha  occ. eigenvalues --  -19.61909 -19.61889 -19.61751 -19.61703 -19.61556
 Alpha  occ. eigenvalues --  -19.61464  -1.15614  -1.15202  -1.14872  -1.14573
 Alpha  occ. eigenvalues --   -1.14458  -1.14407  -1.14112  -1.13167  -1.13005
 Alpha  occ. eigenvalues --   -1.12621  -1.12393  -1.12289  -1.11984  -1.11518
 Alpha  occ. eigenvalues --   -1.11337  -1.11147  -0.63033  -0.62954  -0.62929
 Alpha  occ. eigenvalues --   -0.62712  -0.62417  -0.62375  -0.61908  -0.61606
 Alpha  occ. eigenvalues --   -0.61239  -0.60947  -0.60534  -0.60206  -0.60126
 Alpha  occ. eigenvalues --   -0.60072  -0.59804  -0.59685  -0.53818  -0.53281
 Alpha  occ. eigenvalues --   -0.52649  -0.51044  -0.50249  -0.49775  -0.49544
 Alpha  occ. eigenvalues --   -0.49329  -0.48483  -0.47864  -0.47287  -0.46787
 Alpha  occ. eigenvalues --   -0.46513  -0.45625  -0.45090  -0.43806  -0.41826
 Alpha  occ. eigenvalues --   -0.41667  -0.41499  -0.41383  -0.41359  -0.41224
 Alpha  occ. eigenvalues --   -0.40967  -0.40811  -0.40293  -0.40084  -0.40027
 Alpha  occ. eigenvalues --   -0.39987  -0.39691  -0.39644  -0.39546  -0.39452
 Alpha virt. eigenvalues --   -0.01310  -0.00329   0.00238   0.00663   0.01121
 Alpha virt. eigenvalues --    0.01191   0.02772   0.03522   0.03606   0.03764
 Alpha virt. eigenvalues --    0.04302   0.04678   0.04890   0.05372   0.05731
 Alpha virt. eigenvalues --    0.06279   0.06550   0.06747   0.06961   0.07414
 Alpha virt. eigenvalues --    0.07558   0.08172   0.08296   0.08376   0.08405
 Alpha virt. eigenvalues --    0.09391   0.09766   0.10180   0.10587   0.10614
 Alpha virt. eigenvalues --    0.10699   0.10832   0.11550   0.11645   0.12113
 Alpha virt. eigenvalues --    0.12206   0.12356   0.12476   0.12673   0.12984
 Alpha virt. eigenvalues --    0.13123   0.13554   0.13785   0.14099   0.14172
 Alpha virt. eigenvalues --    0.14776   0.15120   0.15163   0.15953   0.16034
 Alpha virt. eigenvalues --    0.16647   0.16746   0.17064   0.17407   0.17524
 Alpha virt. eigenvalues --    0.17771   0.18034   0.18368   0.18474   0.18783
 Alpha virt. eigenvalues --    0.19350   0.19515   0.19929   0.19987   0.20270
 Alpha virt. eigenvalues --    0.20359   0.21221   0.21681   0.21883   0.22160
 Alpha virt. eigenvalues --    0.22284   0.22659   0.22716   0.22886   0.23055
 Alpha virt. eigenvalues --    0.23123   0.23497   0.23580   0.23764   0.24047
 Alpha virt. eigenvalues --    0.24281   0.24514   0.24656   0.24954   0.25187
 Alpha virt. eigenvalues --    0.25238   0.25513   0.25861   0.26009   0.26373
 Alpha virt. eigenvalues --    0.26699   0.27080   0.27212   0.27321   0.27667
 Alpha virt. eigenvalues --    0.27857   0.27982   0.28246   0.28279   0.28357
 Alpha virt. eigenvalues --    0.28557   0.28791   0.28993   0.29160   0.29291
 Alpha virt. eigenvalues --    0.29423   0.29511   0.29710   0.29909   0.30067
 Alpha virt. eigenvalues --    0.30267   0.30287   0.30647   0.30995   0.31137
 Alpha virt. eigenvalues --    0.31271   0.31336   0.31506   0.32061   0.32254
 Alpha virt. eigenvalues --    0.32431   0.32576   0.32851   0.32931   0.33020
 Alpha virt. eigenvalues --    0.33243   0.33456   0.33628   0.33699   0.34035
 Alpha virt. eigenvalues --    0.34083   0.34315   0.34894   0.35225   0.35505
 Alpha virt. eigenvalues --    0.35597   0.35677   0.35957   0.36130   0.36166
 Alpha virt. eigenvalues --    0.36522   0.37054   0.37278   0.37463   0.37522
 Alpha virt. eigenvalues --    0.37763   0.37944   0.38154   0.38254   0.39067
 Alpha virt. eigenvalues --    0.39080   0.39288   0.39651   0.39770   0.39978
 Alpha virt. eigenvalues --    0.40395   0.40508   0.40869   0.41236   0.41519
 Alpha virt. eigenvalues --    0.41578   0.42323   0.42649   0.42683   0.42940
 Alpha virt. eigenvalues --    0.43210   0.43456   0.43698   0.43899   0.43938
 Alpha virt. eigenvalues --    0.44154   0.44241   0.44706   0.44875   0.45217
 Alpha virt. eigenvalues --    0.45457   0.45703   0.46002   0.46303   0.46881
 Alpha virt. eigenvalues --    0.47303   0.47567   0.47869   0.48338   0.48639
 Alpha virt. eigenvalues --    0.48933   0.49567   0.49844   0.50276   0.50469
 Alpha virt. eigenvalues --    0.50672   0.50868   0.51347   0.51539   0.51687
 Alpha virt. eigenvalues --    0.51909   0.52134   0.52414   0.52877   0.53127
 Alpha virt. eigenvalues --    0.53279   0.53373   0.53784   0.53887   0.54157
 Alpha virt. eigenvalues --    0.54324   0.54628   0.54792   0.55143   0.55330
 Alpha virt. eigenvalues --    0.55690   0.56052   0.56164   0.56390   0.56675
 Alpha virt. eigenvalues --    0.57302   0.57477   0.57619   0.58226   0.58372
 Alpha virt. eigenvalues --    0.58471   0.58831   0.59039   0.59242   0.59470
 Alpha virt. eigenvalues --    0.59626   0.59872   0.60009   0.60188   0.60239
 Alpha virt. eigenvalues --    0.60603   0.60783   0.61173   0.61693   0.61792
 Alpha virt. eigenvalues --    0.61836   0.62304   0.62520   0.62635   0.62926
 Alpha virt. eigenvalues --    0.62988   0.63203   0.63508   0.63873   0.64111
 Alpha virt. eigenvalues --    0.64231   0.64515   0.64632   0.65108   0.65211
 Alpha virt. eigenvalues --    0.65589   0.65703   0.66094   0.66258   0.66445
 Alpha virt. eigenvalues --    0.66516   0.66706   0.67255   0.67364   0.67654
 Alpha virt. eigenvalues --    0.68015   0.68327   0.68615   0.68729   0.69475
 Alpha virt. eigenvalues --    0.69519   0.70053   0.70425   0.70541   0.70951
 Alpha virt. eigenvalues --    0.71173   0.71576   0.71887   0.72339   0.72477
 Alpha virt. eigenvalues --    0.72721   0.72901   0.73166   0.73513   0.73828
 Alpha virt. eigenvalues --    0.73968   0.74302   0.74625   0.75609   0.75885
 Alpha virt. eigenvalues --    0.76132   0.76445   0.76602   0.77110   0.77591
 Alpha virt. eigenvalues --    0.77945   0.78110   0.78530   0.78757   0.78930
 Alpha virt. eigenvalues --    0.79151   0.79427   0.80035   0.80593   0.80927
 Alpha virt. eigenvalues --    0.81068   0.81390   0.81684   0.82233   0.82560
 Alpha virt. eigenvalues --    0.82981   0.83275   0.83558   0.84047   0.84462
 Alpha virt. eigenvalues --    0.84678   0.85163   0.85386   0.85949   0.86203
 Alpha virt. eigenvalues --    0.86579   0.86687   0.87394   0.87636   0.87822
 Alpha virt. eigenvalues --    0.88409   0.88509   0.88873   0.89569   0.89860
 Alpha virt. eigenvalues --    0.90208   0.90981   0.91131   0.91871   0.92164
 Alpha virt. eigenvalues --    0.92425   0.92798   0.93114   0.93561   0.93690
 Alpha virt. eigenvalues --    0.94452   0.94788   0.95564   0.95993   0.96161
 Alpha virt. eigenvalues --    0.96441   0.96796   0.97166   0.97633   0.98286
 Alpha virt. eigenvalues --    0.99663   1.00011   1.00376   1.00633   1.01239
 Alpha virt. eigenvalues --    1.01420   1.01903   1.02467   1.03484   1.04055
 Alpha virt. eigenvalues --    1.04555   1.04720   1.05313   1.05594   1.05910
 Alpha virt. eigenvalues --    1.06429   1.06719   1.06846   1.07286   1.07579
 Alpha virt. eigenvalues --    1.07987   1.08630   1.09072   1.09489   1.09634
 Alpha virt. eigenvalues --    1.10148   1.10528   1.10826   1.11528   1.11879
 Alpha virt. eigenvalues --    1.12623   1.13010   1.13208   1.13569   1.13816
 Alpha virt. eigenvalues --    1.13886   1.14365   1.14937   1.14999   1.15416
 Alpha virt. eigenvalues --    1.15848   1.16002   1.16313   1.16432   1.16896
 Alpha virt. eigenvalues --    1.17425   1.17885   1.18356   1.18703   1.19056
 Alpha virt. eigenvalues --    1.19424   1.19469   1.19801   1.20195   1.20570
 Alpha virt. eigenvalues --    1.20878   1.21180   1.21293   1.21803   1.22157
 Alpha virt. eigenvalues --    1.22362   1.23370   1.23395   1.23713   1.24398
 Alpha virt. eigenvalues --    1.24637   1.24877   1.25439   1.25759   1.25873
 Alpha virt. eigenvalues --    1.26147   1.26414   1.27101   1.27394   1.27991
 Alpha virt. eigenvalues --    1.28172   1.28341   1.28719   1.28970   1.29650
 Alpha virt. eigenvalues --    1.29968   1.30213   1.30489   1.30647   1.31374
 Alpha virt. eigenvalues --    1.31716   1.32205   1.32469   1.32758   1.33339
 Alpha virt. eigenvalues --    1.33584   1.33637   1.34162   1.34679   1.34871
 Alpha virt. eigenvalues --    1.35138   1.35485   1.36294   1.36657   1.37807
 Alpha virt. eigenvalues --    1.38669   1.38814   1.39881   1.40161   1.41078
 Alpha virt. eigenvalues --    1.41678   1.42313   1.42985   1.43792   1.44242
 Alpha virt. eigenvalues --    1.45086   1.45973   1.46619   1.47133   1.47839
 Alpha virt. eigenvalues --    1.48385   1.49207   1.49511   1.49962   1.50203
 Alpha virt. eigenvalues --    1.50528   1.51077   1.51320   1.51363   1.52139
 Alpha virt. eigenvalues --    1.52527   1.52831   1.53418   1.54029   1.54509
 Alpha virt. eigenvalues --    1.54725   1.55124   1.55672   1.56399   1.56870
 Alpha virt. eigenvalues --    1.57022   1.57416   1.58178   1.58426   1.59157
 Alpha virt. eigenvalues --    1.59531   1.59770   1.60621   1.61317   1.61904
 Alpha virt. eigenvalues --    1.62428   1.63083   1.63309   1.63515   1.63974
 Alpha virt. eigenvalues --    1.64484   1.65193   1.65674   1.65954   1.66531
 Alpha virt. eigenvalues --    1.66560   1.66944   1.67392   1.68320   1.68842
 Alpha virt. eigenvalues --    1.69836   1.70091   1.70255   1.70672   1.70913
 Alpha virt. eigenvalues --    1.71114   1.71926   1.72169   1.72525   1.72768
 Alpha virt. eigenvalues --    1.73548   1.73827   1.74039   1.74467   1.74817
 Alpha virt. eigenvalues --    1.75095   1.75362   1.75791   1.75933   1.76239
 Alpha virt. eigenvalues --    1.76881   1.77453   1.77794   1.78380   1.78530
 Alpha virt. eigenvalues --    1.79039   1.79227   1.79654   1.79980   1.80421
 Alpha virt. eigenvalues --    1.80699   1.81110   1.81653   1.81945   1.82398
 Alpha virt. eigenvalues --    1.82589   1.82753   1.83793   1.83982   1.84183
 Alpha virt. eigenvalues --    1.85050   1.85536   1.85655   1.86068   1.86377
 Alpha virt. eigenvalues --    1.87249   1.87492   1.87775   1.88045   1.88451
 Alpha virt. eigenvalues --    1.89518   1.89731   1.90168   1.90923   1.92079
 Alpha virt. eigenvalues --    1.92198   1.93618   1.93930   1.94614   1.95582
 Alpha virt. eigenvalues --    1.96027   1.97456   1.98596   1.99170   1.99719
 Alpha virt. eigenvalues --    2.01181   2.01695   2.01809   2.02402   2.03065
 Alpha virt. eigenvalues --    2.03857   2.04293   2.05010   2.05510   2.05590
 Alpha virt. eigenvalues --    2.06175   2.06446   2.06961   2.07674   2.08267
 Alpha virt. eigenvalues --    2.08990   2.09337   2.09959   2.10239   2.11041
 Alpha virt. eigenvalues --    2.11890   2.12319   2.13334   2.13676   2.14243
 Alpha virt. eigenvalues --    2.14631   2.15154   2.15582   2.15862   2.16200
 Alpha virt. eigenvalues --    2.16267   2.17596   2.18116   2.18208   2.18655
 Alpha virt. eigenvalues --    2.19923   2.20556   2.20676   2.21390   2.21740
 Alpha virt. eigenvalues --    2.22855   2.22925   2.23134   2.23581   2.24211
 Alpha virt. eigenvalues --    2.24690   2.25361   2.25574   2.25815   2.26121
 Alpha virt. eigenvalues --    2.26806   2.27231   2.27825   2.28061   2.28397
 Alpha virt. eigenvalues --    2.28796   2.28939   2.29837   2.29980   2.31100
 Alpha virt. eigenvalues --    2.31455   2.31885   2.32464   2.33089   2.33699
 Alpha virt. eigenvalues --    2.33989   2.34140   2.34922   2.35564   2.35873
 Alpha virt. eigenvalues --    2.36439   2.37008   2.37531   2.37935   2.38401
 Alpha virt. eigenvalues --    2.38922   2.39088   2.39584   2.40235   2.41167
 Alpha virt. eigenvalues --    2.41640   2.42063   2.42554   2.42989   2.43259
 Alpha virt. eigenvalues --    2.43629   2.44001   2.44507   2.45185   2.46158
 Alpha virt. eigenvalues --    2.46599   2.47010   2.47337   2.47594   2.48285
 Alpha virt. eigenvalues --    2.49345   2.49848   2.50218   2.50971   2.51174
 Alpha virt. eigenvalues --    2.51721   2.52357   2.52799   2.53067   2.54072
 Alpha virt. eigenvalues --    2.54468   2.55368   2.55875   2.56108   2.56517
 Alpha virt. eigenvalues --    2.56978   2.57519   2.57668   2.58050   2.58390
 Alpha virt. eigenvalues --    2.58474   2.59200   2.59455   2.59631   2.61393
 Alpha virt. eigenvalues --    2.61577   2.61888   2.62456   2.62849   2.63232
 Alpha virt. eigenvalues --    2.63992   2.64136   2.64791   2.65094   2.65523
 Alpha virt. eigenvalues --    2.65919   2.66707   2.67270   2.67813   2.67849
 Alpha virt. eigenvalues --    2.68823   2.69125   2.70259   2.70473   2.71028
 Alpha virt. eigenvalues --    2.71215   2.71389   2.72294   2.73105   2.73536
 Alpha virt. eigenvalues --    2.73754   2.74143   2.74966   2.75678   2.76018
 Alpha virt. eigenvalues --    2.76308   2.76963   2.77129   2.77405   2.78187
 Alpha virt. eigenvalues --    2.78225   2.78508   2.79557   2.79713   2.79911
 Alpha virt. eigenvalues --    2.80189   2.80535   2.81025   2.81340   2.81675
 Alpha virt. eigenvalues --    2.82324   2.82448   2.83234   2.83405   2.83729
 Alpha virt. eigenvalues --    2.84238   2.84868   2.84911   2.85166   2.85646
 Alpha virt. eigenvalues --    2.85847   2.87005   2.87129   2.87832   2.87986
 Alpha virt. eigenvalues --    2.88394   2.88533   2.89122   2.89330   2.89917
 Alpha virt. eigenvalues --    2.90258   2.90893   2.91073   2.91524   2.92170
 Alpha virt. eigenvalues --    2.92446   2.92862   2.93219   2.93571   2.94115
 Alpha virt. eigenvalues --    2.94714   2.95388   2.95816   2.95980   2.96428
 Alpha virt. eigenvalues --    2.96629   2.97401   2.97529   2.98603   2.98828
 Alpha virt. eigenvalues --    2.99077   2.99399   3.00004   3.00215   3.00875
 Alpha virt. eigenvalues --    3.01425   3.01826   3.02247   3.02582   3.03289
 Alpha virt. eigenvalues --    3.03940   3.04487   3.05010   3.05355   3.06215
 Alpha virt. eigenvalues --    3.06844   3.07338   3.08159   3.08487   3.09105
 Alpha virt. eigenvalues --    3.09792   3.10497   3.11422   3.12130   3.12730
 Alpha virt. eigenvalues --    3.14034   3.14213   3.14508   3.15446   3.15901
 Alpha virt. eigenvalues --    3.16338   3.16556   3.17740   3.18180   3.19299
 Alpha virt. eigenvalues --    3.20023   3.20570   3.21965   3.22263   3.22697
 Alpha virt. eigenvalues --    3.23273   3.24057   3.25259   3.25455   3.26125
 Alpha virt. eigenvalues --    3.26263   3.26744   3.27285   3.27401   3.28605
 Alpha virt. eigenvalues --    3.30766   3.30968   3.32204   3.33077   3.34117
[...]
    17  H   -0.000004   0.000000  -0.000001  -0.001818  -0.003798   0.004725
    18  H    0.000004  -0.000001   0.000001  -0.007667   0.005233  -0.010299
    19  O   -0.034234   0.007398   0.003845   0.000011   0.000012  -0.000002
    20  H    0.011731  -0.008249  -0.001005   0.000024  -0.000089  -0.000023
    21  H    0.000331   0.008760  -0.008370   0.000013   0.000018  -0.000005
    22  O    0.000041   0.000118   0.000141   0.000100   0.001720  -0.003513
    23  H    0.000356  -0.000050  -0.000664   0.000152  -0.002095   0.003469
    24  H   -0.000593   0.000069   0.000060  -0.000313   0.000188  -0.002495
    25  O    8.573461   0.134965   0.213296   0.000012   0.000021  -0.000015
    26  H    0.134965   0.390989   0.009917   0.000002   0.000001   0.000001
    27  H    0.213296   0.009917   0.381753  -0.000010   0.000015   0.000010
    28  O    0.000012   0.000002  -0.000010   8.252564   0.234715   0.278419
    29  H    0.000021   0.000001   0.000015   0.234715   0.428692  -0.125337
    30  H   -0.000015   0.000001   0.000010   0.278419  -0.125337   0.450179
    31  O   -0.000023   0.000002   0.000006  -0.011977   0.004931   0.006157
    32  H    0.000001  -0.000000  -0.000000  -0.008452   0.000342  -0.000555
    33  H    0.000016  -0.000000  -0.000005   0.092141  -0.005994  -0.001793
    34  O   -0.000283   0.000189   0.000416  -0.000567   0.000858   0.000248
    35  H   -0.000810   0.000167  -0.000596  -0.006992  -0.010653   0.017365
    36  H   -0.000421   0.000028   0.000130  -0.005719   0.008021  -0.001440
    37  O   -0.000244   0.000004   0.000390  -0.000083   0.000189   0.000005
    38  H   -0.000919   0.000169   0.001149   0.000400   0.001752  -0.000023
    39  H    0.000652  -0.000280  -0.001542   0.000057  -0.000285  -0.000026
    40  O    0.001956   0.000844  -0.007426   0.000011   0.000032  -0.000002
    41  H    0.001029  -0.000092   0.002026  -0.000002  -0.000004   0.000000
    42  H   -0.007804   0.001709   0.007722  -0.000012  -0.000022   0.000000
    43  O   -0.000083   0.000010   0.000003  -0.023796  -0.006912   0.041030
    44  H    0.000250  -0.000035  -0.000034   0.003353   0.001163  -0.004222
    45  H    0.000019  -0.000001   0.000000   0.004015   0.002015  -0.001448
    46  O   -0.084808   0.018297   0.013410   0.000160  -0.002673   0.000259
    47  H    0.095938  -0.016356  -0.008730  -0.000189  -0.000952   0.000243
    48  H   -0.008808  -0.001832   0.004240   0.001168   0.003089   0.000943
              31         32         33         34         35         36
     1  O    0.011736  -0.001653  -0.025435  -0.034199  -0.023003  -0.044135
     2  H   -0.003212   0.000831   0.005520   0.006080  -0.020816  -0.009086
     3  H   -0.001927  -0.000099   0.001141   0.036088   0.032668   0.008257
     4  O   -0.000119   0.000211   0.000818  -0.001852   0.000021  -0.001628
     5  H   -0.000044  -0.000047  -0.000157   0.000799   0.000101  -0.000349
     6  H   -0.001237  -0.001837   0.002148  -0.001903   0.001364   0.000337
     7  O   -0.000004  -0.000000   0.000001  -0.000092  -0.000635   0.000112
     8  H   -0.000002   0.000000   0.000031  -0.000452   0.001969  -0.000265
     9  H   -0.000003  -0.000000  -0.000003  -0.000240  -0.000416   0.000173
    10  O    0.000008  -0.000029  -0.000370   0.004896  -0.008390   0.004603
    11  H   -0.000266  -0.000022  -0.000170  -0.015339  -0.000741  -0.001820
    12  H   -0.000055  -0.000002  -0.000026  -0.000011   0.002555  -0.000501
    13  O   -0.001260   0.000160   0.002154   0.069267  -0.053111  -0.047638
    14  H   -0.000994   0.000017  -0.000734  -0.063296   0.017317   0.027209
    15  H   -0.000175  -0.000788   0.001133   0.050079  -0.019312  -0.001580
    16  O   -0.016505   0.000199  -0.003122   0.004564   0.000712  -0.003455
    17  H    0.030772   0.005123  -0.007040  -0.002822   0.003102   0.004585
    18  H   -0.032379   0.008749   0.001873   0.001208  -0.001674   0.001864
    19  O    0.000030  -0.000003  -0.000008  -0.001419   0.000737   0.000772
    20  H    0.000181  -0.000017   0.000033   0.000753   0.004573  -0.002362
    21  H   -0.000012   0.000002  -0.000002  -0.002934   0.000163   0.000709
    22  O   -0.000062  -0.000017   0.000139   0.000495   0.000979  -0.000310
    23  H   -0.000024   0.000004  -0.000024   0.003038   0.008397  -0.001536
    24  H   -0.000153   0.000119   0.000472   0.001851  -0.000338  -0.001272
    25  O   -0.000023   0.000001   0.000016  -0.000283  -0.000810  -0.000421
    26  H    0.000002  -0.000000  -0.000000   0.000189   0.000167   0.000028
    27  H    0.000006  -0.000000  -0.000005   0.000416  -0.000596   0.000130
    28  O   -0.011977  -0.008452   0.092141  -0.000567  -0.006992  -0.005719
    29  H    0.004931   0.000342  -0.005994   0.000858  -0.010653   0.008021
    30  H    0.006157  -0.000555  -0.001793   0.000248   0.017365  -0.001440
    31  O    8.609194   0.090395   0.209242  -0.046853  -0.019152   0.029703
    32  H    0.090395   0.425418   0.004597  -0.000983   0.001820   0.012056
    33  H    0.209242   0.004597   0.395637   0.010299  -0.002398  -0.012104
    34  O   -0.046853  -0.000983   0.010299   8.883008   0.188186  -0.111073
    35  H   -0.019152   0.001820  -0.002398   0.188186   0.505768  -0.000055
    36  H    0.029703   0.012056  -0.012104  -0.111073  -0.000055   0.552253
    37  O    0.000107   0.000149  -0.000040  -0.006157  -0.006716   0.003089
    38  H   -0.000792   0.000838  -0.000379   0.005048  -0.019016   0.049871
    39  H    0.000419  -0.000085   0.000157  -0.006615   0.019826  -0.015516
    40  O    0.000012   0.000001   0.000002  -0.000123  -0.002455  -0.000939
    41  H    0.000002  -0.000000  -0.000000   0.000090   0.000276   0.000025
    42  H    0.000008  -0.000001  -0.000003  -0.002493   0.000755   0.001076
    43  O    0.002991   0.001959  -0.007557  -0.001896  -0.003854   0.000328
    44  H   -0.000543  -0.000287   0.001098  -0.000266  -0.000266   0.000809
    45  H   -0.000608  -0.000309   0.000248   0.000165   0.000236   0.000098
    46  O   -0.000093  -0.000006  -0.001379  -0.041148  -0.058524   0.009803
    47  H   -0.000069   0.000003   0.000390   0.007661   0.020437  -0.001599
    48  H   -0.001190   0.000336  -0.000420  -0.050523   0.023482   0.023577
              37         38         39         40         41         42
     1  O    0.001953  -0.025992  -0.004953  -0.001412   0.000212   0.000357
     2  H   -0.004867  -0.008346   0.004219  -0.000297   0.000097  -0.000436
     3  H   -0.005501   0.014782  -0.001384   0.001092  -0.000037   0.000246
     4  O    0.000014  -0.000094  -0.000032  -0.000147   0.000029   0.000171
     5  H    0.000002   0.000005   0.000004   0.000017  -0.000002  -0.000003
     6  H   -0.000019   0.000064   0.000004   0.000009  -0.000001  -0.000028
     7  O   -0.001377   0.002772  -0.002456  -0.042173   0.007939   0.007706
     8  H   -0.003365  -0.002013   0.004734   0.001119  -0.004751   0.000290
     9  H   -0.006439   0.003456  -0.010359   0.024591   0.001532  -0.004466
    10  O   -0.013008   0.019531   0.002141   0.002587  -0.000757  -0.000672
    11  H    0.095508  -0.017470   0.002045  -0.009631   0.000660   0.001258
    12  H   -0.005558  -0.003522   0.000200   0.002082  -0.000264  -0.000295
    13  O    0.001436  -0.006324   0.001253   0.004694  -0.000371  -0.007063
    14  H   -0.000203   0.001253  -0.000362  -0.001244   0.000226  -0.001208
    15  H   -0.000880   0.000675   0.002826  -0.003546   0.000684   0.002288
    16  O   -0.000010  -0.000076   0.000015  -0.000001   0.000000   0.000002
    17  H   -0.000017  -0.000097  -0.000019  -0.000001   0.000000   0.000000
    18  H    0.000013   0.000058   0.000004   0.000001  -0.000000  -0.000000
    19  O   -0.000167   0.001208  -0.003396  -0.023773   0.000075   0.125349
    20  H    0.000130  -0.003073   0.003924   0.004860  -0.001641  -0.023306
    21  H    0.000240   0.001152  -0.003706   0.004462  -0.002845  -0.001864
    22  O    0.000009   0.000009   0.000002   0.000011  -0.000000   0.000033
    23  H    0.000005  -0.000127   0.000000   0.000010  -0.000001  -0.000084
    24  H    0.000040   0.000051  -0.000003   0.000017  -0.000001   0.000014
    25  O   -0.000244  -0.000919   0.000652   0.001956   0.001029  -0.007804
    26  H    0.000004   0.000169  -0.000280   0.000844  -0.000092   0.001709
    27  H    0.000390   0.001149  -0.001542  -0.007426   0.002026   0.007722
    28  O   -0.000083   0.000400   0.000057   0.000011  -0.000002  -0.000012
    29  H    0.000189   0.001752  -0.000285   0.000032  -0.000004  -0.000022
    30  H    0.000005  -0.000023  -0.000026  -0.000002   0.000000   0.000000
    31  O    0.000107  -0.000792   0.000419   0.000012   0.000002   0.000008
    32  H    0.000149   0.000838  -0.000085   0.000001  -0.000000  -0.000001
    33  H   -0.000040  -0.000379   0.000157   0.000002  -0.000000  -0.000003
    34  O   -0.006157   0.005048  -0.006615  -0.000123   0.000090  -0.002493
    35  H   -0.006716  -0.019016   0.019826  -0.002455   0.000276   0.000755
    36  H    0.003089   0.049871  -0.015516  -0.000939   0.000025   0.001076
    37  O    8.230175   0.254220   0.272334  -0.026542   0.003523   0.004102
    38  H    0.254220   0.449788  -0.143257  -0.007317   0.001603   0.002147
    39  H    0.272334  -0.143257   0.459930   0.049890  -0.002711  -0.005517
    40  O   -0.026542  -0.007317   0.049890   8.465034   0.165698   0.234848
    41  H    0.003523   0.001603  -0.002711   0.165698   0.369590   0.013494
    42  H    0.004102   0.002147  -0.005517   0.234848   0.013494   0.369300
    43  O    0.000009  -0.000001  -0.000009   0.000001  -0.000000  -0.000004
    44  H   -0.000017  -0.000004  -0.000000  -0.000003   0.000000  -0.000004
    45  H   -0.000002  -0.000001   0.000000  -0.000000   0.000000   0.000000
    46  O   -0.000030   0.002965  -0.000918   0.000025  -0.000290   0.002887
    47  H    0.000105  -0.001891   0.001805  -0.000522   0.000104   0.000565
    48  H    0.001556   0.007244  -0.001019   0.001055  -0.000439   0.004689
              43         44         45         46         47         48
     1  O   -0.001170  -0.000069   0.000427   0.065869  -0.030471  -0.050628
     2  H   -0.000809  -0.000128   0.000264   0.046960   0.005346  -0.019030
     3  H   -0.001410   0.000824   0.000159  -0.080769   0.025365   0.024370
     4  O    0.001368  -0.004910   0.001021   0.001958   0.004687  -0.005237
     5  H    0.000751   0.001025  -0.000085  -0.001724  -0.000538  -0.000058
     6  H   -0.007235   0.007763   0.001796   0.000422  -0.000694   0.002840
     7  O   -0.000001  -0.000003  -0.000000   0.003076  -0.003038  -0.001516
     8  H   -0.000003  -0.000005  -0.000000  -0.006772   0.003811   0.001964
     9  H    0.000001   0.000001  -0.000000  -0.001548   0.000013  -0.000026
    10  O   -0.000038   0.000042   0.000009  -0.000262  -0.001242  -0.000171
    11  H    0.000022  -0.000002  -0.000001   0.000787  -0.000379  -0.001712
    12  H    0.000008  -0.000002  -0.000000  -0.000376  -0.000069   0.000068
    13  O    0.001477   0.002278  -0.000314   0.045626  -0.082383  -0.032585
    14  H   -0.001885   0.001068   0.000342   0.003629   0.028801   0.034794
    15  H    0.000264   0.000144  -0.000011  -0.002236  -0.005777  -0.015522
    16  O   -0.043906   0.007379   0.008793  -0.000351   0.000070  -0.002151
    17  H    0.000744   0.000964  -0.004416   0.000339  -0.000032   0.000909
    18  H    0.026794  -0.007148   0.001331  -0.000528   0.000234  -0.000299
    19  O    0.000005   0.000017  -0.000000  -0.002337   0.004090  -0.003612
    20  H   -0.000017  -0.000159  -0.000001  -0.007708   0.013097  -0.002779
    21  H    0.000021  -0.000011  -0.000002   0.004102  -0.015260  -0.008694
    22  O   -0.024573   0.129045  -0.002068  -0.012738   0.005393  -0.002439
    23  H   -0.002667  -0.022160   0.000492   0.037118   0.033302  -0.004208
    24  H    0.008734  -0.009516  -0.003647  -0.032898   0.001059  -0.000648
    25  O   -0.000083   0.000250   0.000019  -0.084808   0.095938  -0.008808
    26  H    0.000010  -0.000035  -0.000001   0.018297  -0.016356  -0.001832
    27  H    0.000003  -0.000034   0.000000   0.013410  -0.008730   0.004240
    28  O   -0.023796   0.003353   0.004015   0.000160  -0.000189   0.001168
    29  H   -0.006912   0.001163   0.002015  -0.002673  -0.000952   0.003089
    30  H    0.041030  -0.004222  -0.001448   0.000259   0.000243   0.000943
    31  O    0.002991  -0.000543  -0.000608  -0.000093  -0.000069  -0.001190
    32  H    0.001959  -0.000287  -0.000309  -0.000006   0.000003   0.000336
    33  H   -0.007557   0.001098   0.000248  -0.001379   0.000390  -0.000420
    34  O   -0.001896  -0.000266   0.000165  -0.041148   0.007661  -0.050523
    35  H   -0.003854  -0.000266   0.000236  -0.058524   0.020437   0.023482
    36  H    0.000328   0.000809   0.000098   0.009803  -0.001599   0.023577
    37  O    0.000009  -0.000017  -0.000002  -0.000030   0.000105   0.001556
    38  H   -0.000001  -0.000004  -0.000001   0.002965  -0.001891   0.007244
    39  H   -0.000009  -0.000000   0.000000  -0.000918   0.001805  -0.001019
    40  O    0.000001  -0.000003  -0.000000   0.000025  -0.000522   0.001055
    41  H   -0.000000   0.000000   0.000000  -0.000290   0.000104  -0.000439
    42  H   -0.000004  -0.000004   0.000000   0.002887   0.000565   0.004689
    43  O    8.476877   0.231727   0.166842   0.005129  -0.001189   0.000910
    44  H    0.231727   0.374537   0.011981  -0.000063  -0.004388   0.004322
    45  H    0.166842   0.011981   0.371389  -0.000567   0.000103  -0.000364
    46  O    0.005129  -0.000063  -0.000567   8.852704  -0.034432   0.100709
    47  H   -0.001189  -0.004388   0.000103  -0.034432   0.494773   0.040662
    48  H    0.000910   0.004322  -0.000364   0.100709   0.040662   0.503241
 Mulliken charges:
               1
     1  O   -0.888204
     2  H    0.516684
     3  H    0.388334
     4  O   -0.864882
     5  H    0.459659
     6  H    0.290436
     7  O   -0.732377
     8  H    0.401707
     9  H    0.461192
    10  O   -0.855300
    11  H    0.348206
    12  H    0.466736
    13  O   -0.868939
    14  H    0.335879
    15  H    0.516637
    16  O   -0.728843
    17  H    0.400907
    18  H    0.464289
    19  O   -0.731093
    20  H    0.371154
    21  H    0.481031
    22  O   -0.747735
    23  H    0.393543
    24  H    0.491940
    25  O   -0.884323
    26  H    0.461130
    27  H    0.289386
    28  O   -0.779884
    29  H    0.388683
    30  H    0.378950
    31  O   -0.856164
    32  H    0.461861
    33  H    0.339875
    34  O   -0.881750
    35  H    0.406948
    36  H    0.525314
    37  O   -0.788062
    38  H    0.418525
    39  H    0.378007
    40  O   -0.837407
    41  H    0.445294
    42  H    0.274267
    43  O   -0.838992
    44  H    0.274455
    45  H    0.442102
    46  O   -0.841058
    47  H    0.422139
    48  H    0.429741
 Sum of Mulliken charges =  -0.00000
 Mulliken charges with hydrogens summed into heavy atoms:
               1
     1  O    0.016814
     4  O   -0.114787
     7  O    0.130522
    10  O   -0.040358
    13  O   -0.016423
    16  O    0.136353
    19  O    0.121091
    22  O    0.137749
    25  O   -0.133807
    28  O   -0.012250
    31  O   -0.054427
    34  O    0.050511
    37  O    0.008470
    40  O   -0.117846
    43  O   -0.122434
    46  O    0.010823
 Electronic spatial extent (au):  <R**2>=           7648.5119
 Charge=              0.0000 electrons
 Dipole moment (field-independent basis, Debye):
    X=              0.0169    Y=              0.0682    Z=              0.0172  Tot=              0.0723
 Quadrupole moment (field-independent basis, Debye-Ang):
   XX=            -95.2154   YY=            -98.9323   ZZ=           -101.2447
   XY=              0.2966   XZ=              2.1433   YZ=              0.4605
 Traceless Quadrupole moment (field-independent basis, Debye-Ang):
   XX=              3.2487   YY=             -0.4682   ZZ=             -2.7805
   XY=              0.2966   XZ=              2.1433   YZ=              0.4605
 Octapole moment (field-independent basis, Debye-Ang**2):
  XXX=              0.5716  YYY=             18.4456  ZZZ=              0.9594  XYY=              1.3235
  XXY=             -7.2075  XXZ=             -1.1096  XZZ=             -0.7210  YZZ=             -9.0687
  YYZ=             -0.9544  XYZ=             -0.0762
 Hexadecapole moment (field-independent basis, Debye-Ang**3):
 XXXX=          -4839.9758 YYYY=          -1898.3927 ZZZZ=          -1284.4646 XXXY=             16.8482
 XXXZ=           -422.9860 YYYX=             19.2385 YYYZ=            -14.5381 ZZZX=            -21.5435
 ZZZY=              5.0376 XXYY=          -1038.8625 XXZZ=           -869.2406 YYZZ=           -509.9133
 XXYZ=             37.9485 YYXZ=            326.3382 ZZXY=            -13.2185
 N-N= 1.601361699018D+03 E-N=-6.096292406682D+03  KE= 1.219060567186D+03
 No NMR shielding tensors so no spin-rotation constants.
 Leave Link  601 at Wed Apr 21 10:06:54 2021, MaxMem= 12079595520 cpu:            2325.8 elap:              50.2
 (Enter /s/ls4/groups/g0130/bin/g16/l9999.exe)

 Test job not archived.
 1\1\GINC-N103\Stability\RM062X\Gen\H32O16\ROOT\21-Apr-2021\0\\#P M062X
 /GEN Integral=UltraFineGrid SCF=NoSymm Stable=(RExt, Opt) IOp(1/33=1)\
 \Database calculations.\\0,1\O,0,-0.01751003,0.57324467,-1.88041768\H,
 0,-0.01751108,-0.35665916,-1.56650646\H,0,-0.90246837,0.72841828,-2.26
 052768\O,0,2.71097789,-1.00764992,2.45358399\H,0,3.09534015,-1.2377758
 2,3.30440251\H,0,3.21783614,-0.2173712,2.12750606\O,0,-4.02892163,-1.1
 2759782,-1.28466763\H,0,-3.62475238,-0.42084147,-1.81843744\H,0,-4.302
 12492,-0.67725294,-0.46594747\O,0,-2.70489614,1.13452577,-2.41161539\H
 ,0,-2.80490665,1.64016854,-1.5595605\H,0,-3.07513918,1.6928747,-3.1015
 5962\O,0,0.03664207,-0.55693921,1.84970688\H,0,0.9307598,-0.69218392,2
 .21935237\H,0,0.01473738,0.37306246,1.53633606\O,0,4.03056616,1.013739
 01,1.34823247\H,0,3.52108782,1.81315481,1.12600448\H,0,4.30130959,0.65
 662728,0.48392614\O,0,-2.50299851,-1.69239092,2.12640718\H,0,-1.601495
 38,-1.32616615,2.19217772\H,0,-2.45450324,-2.33052007,1.39511426\O,0,2
 .838146,-2.26353612,-0.13873012\H,0,1.89981118,-2.28679177,-0.40279642
 \H,0,2.81341095,-2.05153923,0.80943801\O,0,-2.41422835,-3.05294298,-0.
 41554159\H,0,-2.72900063,-3.91966469,-0.68754806\H,0,-3.03456612,-2.39
 268992,-0.82215919\O,0,2.51572336,1.77895474,-2.00085796\H,0,1.6524292
 ,1.35219162,-2.14948842\H,0,3.1395289,1.04238433,-1.86803209\O,0,2.394
 16562,3.09450276,0.29558009\H,0,2.63524331,4.02187878,0.21438078\H,0,2
 .47045261,2.70530808,-0.6175465\O,0,-0.11879678,1.86341209,0.55878718\
 H,0,-0.04240713,1.45794065,-0.33375043\H,0,0.65744122,2.45057343,0.618
 0304\O,0,-2.85689313,2.23501545,-0.00605384\H,0,-1.95010988,2.26613499
 ,0.34855418\H,0,-3.3347539,1.59973201,0.55743665\O,0,-4.23893656,0.123
 0917,1.25905612\H,0,-4.96773943,0.22687949,1.87748583\H,0,-3.61605528,
 -0.53030149,1.67465357\O,0,4.26737543,-0.27342457,-1.1716204\H,0,3.752
 96787,-1.06726027,-0.86827457\H,0,5.02174209,-0.61607661,-1.65929984\O
 ,0,0.09017475,-1.84611053,-0.58022569\H,0,-0.70280493,-2.41294365,-0.6
 3476922\H,0,0.03166201,-1.43420184,0.31061075\\Version=ES64L-G16RevA.0
 3\State=1-A\HF=-1223.2524138\RMSD=6.527e-09\Dipole=0.0029425,0.0277603
 ,-0.0054609\Quadrupole=1.9943408,-0.0986681,-1.8956726,1.2608872,1.546
 5488,-0.2175674\PG=C01 [X(H32O16)]\\@


 I think that all right-thinking people in this
 country are sick and tired of being told that
 ordinary, decent people are fed up in this country
 with being sick and tired.  I'm certainly not!
 But I'm sick and tired of being told that I am!
                               -- Monty Python
 Job cpu time:      46 days  3 hours 39 minutes 28.7 seconds.
 Elapsed time:       0 days 23 hours 30 minutes 45.9 seconds.
 File lengths (MBytes):  RWF=   8206 Int=      0 D2E=      0 Chk=    495 Scr=      1
 Normal termination of Gaussian 16 at Wed Apr 21 10:06:55 2021.
