 Entering Gaussian System, Link 0=/s/ls4/users/knvvv/bin/g16sse/g16
 Input=data/database/M062X--def2-QZVPPD--28_Ar_AE18.gjf
 Output=data/database/M062X--def2-QZVPPD--28_Ar_AE18.log
 Initial command:
 /s/ls4/users/knvvv/bin/g16sse/l1.exe "/s/ls4/users/knvvv/bin/scratch/Gau-16933.inp" -scrdir="/s/ls4/users/knvvv/bin/scratch/"
 Entering Link 1 = /s/ls4/users/knvvv/bin/g16sse/l1.exe PID=     16934.
  
 Copyright (c) 1988,1990,1992,1993,1995,1998,2003,2009,2016,
            Gaussian, Inc.  All Rights Reserved.
  
 This is part of the Gaussian(R) 16 program.  It is based on
 the Gaussian(R) 09 system (copyright 2009, Gaussian, Inc.),
 the Gaussian(R) 03 system (copyright 2003, Gaussian, Inc.),
 the Gaussian(R) 98 system (copyright 1998, Gaussian, Inc.),
 the Gaussian(R) 94 system (copyright 1995, Gaussian, Inc.),
 the Gaussian 92(TM) system (copyright 1992, Gaussian, Inc.),
 the Gaussian 90(TM) system (copyright 1990, Gaussian, Inc.),
 the Gaussian 88(TM) system (copyright 1988, Gaussian, Inc.),
 the Gaussian 86(TM) system (copyright 1986, Carnegie Mellon
 University), and the Gaussian 82(TM) system (copyright 1983,
 Carnegie Mellon University). Gaussian is a federally registered
 trademark of Gaussian, Inc.
  
 This software contains proprietary and confidential information,
 including trade secrets, belonging to Gaussian, Inc.
  
 This software is provided under written license and may be
 used, copied, transmitted, or stored only in accord with that
 written license.
  
 The following legend is applicable only to US Government
 contracts under FAR:
  
                    RESTRICTED RIGHTS LEGEND
  
 Use, reproduction and disclosure by the US Government is
 subject to restrictions as set forth in subparagraphs (a)
 and (c) of the Commercial Computer Software - Restricted
 Rights clause in FAR 52.227-19.
  
 Gaussian, Inc.
 340 Quinnipiac St., Bldg. 40, Wallingford CT 06492
  
  
 ---------------------------------------------------------------
 Warning -- This program may not be used in any manner that
 competes with the business of Gaussian, Inc. or will provide
 assistance to any competitor of Gaussian, Inc.  The licensee
 of this program is prohibited from giving any competitor of
 Gaussian, Inc. access to this program.  By using this program,
 the user acknowledges that Gaussian, Inc. is engaged in the
 business of creating and licensing software in the field of
 computational chemistry and represents and warrants to the
 licensee that it is not a competitor of Gaussian, Inc. and that
 it will not use this program in any manner prohibited above.
 ---------------------------------------------------------------
  

 Cite this work as:
 Gaussian 16, Revision A.03,
 M. J. Frisch, G. W. Trucks, H. B. Schlegel, G. E. Scuseria, 
 M. A. Robb, J. R. Cheeseman, G. Scalmani, V. Barone, 
 G. A. Petersson, H. Nakatsuji, X. Li, M. Caricato, A. V. Marenich, 
 J. Bloino, B. G. Janesko, R. Gomperts, B. Mennucci, H. P. Hratchian, 
 J. V. Ortiz, A. F. Izmaylov, J. L. Sonnenberg, D. Williams-Young, 
 F. Ding, F. Lipparini, F. Egidi, J. Goings, B. Peng, A. Petrone, 
 T. Henderson, D. Ranasinghe, V. G. Zakrzewski, J. Gao, N. Rega, 
 G. Zheng, W. Liang, M. Hada, M. Ehara, K. Toyota, R. Fukuda, 
 J. Hasegawa, M. Ishida, T. Nakajima, Y. Honda, O. Kitao, H. Nakai, 
 T. Vreven, K. Throssell, J. A. Montgomery, Jr., J. E. Peralta, 
 F. Ogliaro, M. J. Bearpark, J. J. Heyd, E. N. Brothers, K. N. Kudin, 
 V. N. Staroverov, T. A. Keith, R. Kobayashi, J. Normand, 
 K. Raghavachari, A. P. Rendell, J. C. Burant, S. S. Iyengar, 
 J. Tomasi, M. Cossi, J. M. Millam, M. Klene, C. Adamo, R. Cammi, 
 J. W. Ochterski, R. L. Martin, K. Morokuma, O. Farkas, 
 J. B. Foresman, and D. J. Fox, Gaussian, Inc., Wallingford CT, 2016.
 
 ******************************************
 Gaussian 16:  ES64L-G16RevA.03 25-Dec-2016
                18-Apr-2021 
 ******************************************
 %RWF=temp7_73999,70GB
 %nprocshared=48
 Will use up to   48 processors via shared memory.
 Default route: MaxDisk=80GB
 ----------------------------------------------------------------------
 #P M062X/GEN Integral=UltraFineGrid SCF=NoSymm Stable=(RExt, Opt) IOp(
 1/33=1)
 ----------------------------------------------------------------------
 1/33=1,38=1,172=1/1;
 2/12=2,17=6,18=5,40=1/2;
 3/5=7,11=2,25=1,30=1,74=-55,75=-5/1,2,3;
 4/9=2/1;
 5/5=2,38=5/2;
 6/7=2,8=2,9=2,10=2,28=1/1;
 8/6=1,10=90,11=11/1;
 9/8=-3,42=1,46=1/14;
 5/5=2,8=3,17=40,38=5/8(-2);
 6/7=2,8=2,9=2,10=2,28=1/1;
 99/5=1,9=1/99;
 Leave Link    1 at Sun Apr 18 01:26:26 2021, MaxMem=           0 cpu:               8.9 elap:               0.2
 (Enter /s/ls4/users/knvvv/bin/g16sse/l101.exe)
 ONIOM data not found on unit 2.
 ----------------------
 Database calculations.
 ----------------------
 TstMul:  ICh=     0
 TstMul:  Mul=     1
 TstMul:  ICh=     0
 TstMul:  Mul=     1
 Symbolic Z-matrix:
 Charge =  0 Multiplicity = 1
 Ar                    0.        0.        0. 
 
 RdStrC is calling ZToCFu for IStruc=1 NZ=     1.
 PrtBox:  NBox=     1 Levels=  0 BoxLen=    8.00 SMaxX=        0.00
          Shift=            0.000000            0.000000            0.000000
 Box      1 Number                   0 centers from      1 to      1:
 After GenITR:
 ITRead=  0
 MicOpt= -1
 ITRead=  0
 MicOpt= -1
 NAtoms=      1 NQM=        1 NQMF=       0 NMMI=      0 NMMIF=      0
                NMic=       0 NMicF=      0.
                    Isotopes and Nuclear Properties:
 (Nuclear quadrupole moments (NQMom) in fm**2, nuclear magnetic moments (NMagM)
  in nuclear magnetons)

  Atom         1
 IAtWgt=          40
 AtmWgt=  39.9623831
 NucSpn=           0
 AtZEff=  -0.0000000
 NQMom=    0.0000000
 NMagM=    0.0000000
 AtZNuc=  18.0000000
 No MM parameters found.
 Leave Link  101 at Sun Apr 18 01:26:26 2021, MaxMem=   104857600 cpu:               8.1 elap:               0.2
 (Enter /s/ls4/users/knvvv/bin/g16sse/l202.exe)
                          Input orientation:                          
 ---------------------------------------------------------------------
 Center     Atomic      Atomic             Coordinates (Angstroms)
 Number     Number       Type             X           Y           Z
 ---------------------------------------------------------------------
      1         18           0        0.000000    0.000000    0.000000
 ---------------------------------------------------------------------
 Stoichiometry    Ar
 Framework group  OH[O(Ar)]
 Deg. of freedom     0
 Full point group                 OH      NOp  48
 Largest Abelian subgroup         D2H     NOp   8
 Largest concise Abelian subgroup C1      NOp   1
                         Standard orientation:                         
 ---------------------------------------------------------------------
 Center     Atomic      Atomic             Coordinates (Angstroms)
 Number     Number       Type             X           Y           Z
 ---------------------------------------------------------------------
      1         18           0        0.000000    0.000000    0.000000
 ---------------------------------------------------------------------
 Leave Link  202 at Sun Apr 18 01:26:27 2021, MaxMem=   104857600 cpu:              39.7 elap:               0.9
 (Enter /s/ls4/users/knvvv/bin/g16sse/l301.exe)
 General basis read from cards:  (5D, 7F)
 Centers:       1
 S 10 1.00
     Exponent=  1.6734219494D+06 Coefficients=  1.1245990413D-05
     Exponent=  2.5060175373D+05 Coefficients=  8.7428115798D-05
     Exponent=  5.7030912120D+04 Coefficients=  4.5961641275D-04
     Exponent=  1.6153303915D+04 Coefficients=  1.9363890742D-03
     Exponent=  5.2694109288D+03 Coefficients=  6.9994046497D-03
     Exponent=  1.9020315541D+03 Coefficients=  2.2312068196D-02
     Exponent=  7.4157677159D+02 Coefficients=  6.2808077697D-02
     Exponent=  3.0720901906D+02 Coefficients=  1.5101140997D-01
     Exponent=  1.3352786203D+02 Coefficients=  2.8713661177D-01
     Exponent=  6.0253381291D+01 Coefficients=  3.6385490107D-01
 S 3 1.00
     Exponent=  5.2202426206D+02 Coefficients=  1.8071323116D-02
     Exponent=  1.6151290469D+02 Coefficients=  1.6449219884D-01
     Exponent=  6.2126369433D+01 Coefficients=  6.3897334899D-01
 S 1 1.00
     Exponent=  2.7590930012D+01 Coefficients=  1.0000000000D+00
 S 1 1.00
     Exponent=  1.1175528881D+01 Coefficients=  1.0000000000D+00
 S 1 1.00
     Exponent=  5.2959065137D+00 Coefficients=  1.0000000000D+00
 S 1 1.00
     Exponent=  2.4782798895D+00 Coefficients=  1.0000000000D+00
 S 1 1.00
     Exponent=  9.1262095059D-01 Coefficients=  1.0000000000D+00
 S 1 1.00
     Exponent=  4.0426067549D-01 Coefficients=  1.0000000000D+00
 S 1 1.00
     Exponent=  1.6562886306D-01 Coefficients=  1.0000000000D+00
 S 1 1.00
     Exponent=  6.5129364729D-02 Coefficients=  1.0000000000D+00
 P 8 1.00
     Exponent=  2.8684504581D+03 Coefficients=  2.4010435121D-04
     Exponent=  6.7971869590D+02 Coefficients=  2.0904788665D-03
     Exponent=  2.2036758824D+02 Coefficients=  1.1369316839D-02
     Exponent=  8.3620439734D+01 Coefficients=  4.4901977398D-02
     Exponent=  3.4964322657D+01 Coefficients=  1.3237156770D-01
     Exponent=  1.5525131784D+01 Coefficients=  2.7709277600D-01
     Exponent=  7.0992979806D+00 Coefficients=  3.8613979646D-01
     Exponent=  3.3021336602D+00 Coefficients=  2.8492925372D-01
 P 2 1.00
     Exponent=  1.2878765667D+02 Coefficients= -3.0509457751D-02
     Exponent=  8.4357867977D+00 Coefficients=  6.4101621070D-01
 P 1 1.00
     Exponent=  1.4618661855D+00 Coefficients=  1.0000000000D+00
 P 1 1.00
     Exponent=  6.4658010096D-01 Coefficients=  1.0000000000D+00
 P 1 1.00
     Exponent=  2.7229295755D-01 Coefficients=  1.0000000000D+00
 P 1 1.00
     Exponent=  1.0905182449D-01 Coefficients=  1.0000000000D+00
 P 1 1.00
     Exponent=  3.0101149684D-02 Coefficients=  1.0000000000D+00
 D 1 1.00
     Exponent=  6.3150000000D+00 Coefficients=  1.0000000000D+00
 D 1 1.00
     Exponent=  1.5620000000D+00 Coefficients=  1.0000000000D+00
 D 1 1.00
     Exponent=  7.1500000000D-01 Coefficients=  1.0000000000D+00
 D 1 1.00
     Exponent=  2.9700000000D-01 Coefficients=  1.0000000000D+00
 D 1 1.00
     Exponent=  1.0105028218D-01 Coefficients=  1.0000000000D+00
 F 1 1.00
     Exponent=  1.3250000000D+00 Coefficients=  1.0000000000D+00
 F 1 1.00
     Exponent=  5.4300000000D-01 Coefficients=  1.0000000000D+00
 G 1 1.00
     Exponent=  1.0070000000D+00 Coefficients=  1.0000000000D+00
 ****
 Ernie: Thresh=  0.10000D-02 Tol=  0.10000D-05 Strict=F.
 There are    31 symmetry adapted cartesian basis functions of AG  symmetry.
 There are     8 symmetry adapted cartesian basis functions of B1G symmetry.
 There are     8 symmetry adapted cartesian basis functions of B2G symmetry.
 There are     8 symmetry adapted cartesian basis functions of B3G symmetry.
 There are     2 symmetry adapted cartesian basis functions of AU  symmetry.
 There are    13 symmetry adapted cartesian basis functions of B1U symmetry.
 There are    13 symmetry adapted cartesian basis functions of B2U symmetry.
 There are    13 symmetry adapted cartesian basis functions of B3U symmetry.
 There are    23 symmetry adapted basis functions of AG  symmetry.
 There are     7 symmetry adapted basis functions of B1G symmetry.
 There are     7 symmetry adapted basis functions of B2G symmetry.
 There are     7 symmetry adapted basis functions of B3G symmetry.
 There are     2 symmetry adapted basis functions of AU  symmetry.
 There are    11 symmetry adapted basis functions of B1U symmetry.
 There are    11 symmetry adapted basis functions of B2U symmetry.
 There are    11 symmetry adapted basis functions of B3U symmetry.
    79 basis functions,   131 primitive gaussians,    96 cartesian basis functions
     9 alpha electrons        9 beta electrons
       nuclear repulsion energy         0.0000000000 Hartrees.
 IExCor= 4336 DFT=T Ex+Corr=M062X ExCW=0 ScaHFX=  0.540000
 ScaDFX=  1.000000  1.000000  1.000000  1.000000 ScalE2=  1.000000  1.000000
 IRadAn=      5 IRanWt=     -1 IRanGd=            0 ICorTp=0 IEmpDi=  4
 NAtoms=    1 NActive=    1 NUniq=    1 SFac= 1.00D+00 NAtFMM=   60 NAOKFM=F Big=F
 Integral buffers will be    131072 words long.
 Raffenetti 2 integral format.
 Two-electron integral symmetry is turned on.
 Leave Link  301 at Sun Apr 18 01:26:27 2021, MaxMem=   104857600 cpu:              10.4 elap:               0.3
 (Enter /s/ls4/users/knvvv/bin/g16sse/l302.exe)
 NPDir=0 NMtPBC=     1 NCelOv=     1 NCel=       1 NClECP=     1 NCelD=      1
         NCelK=      1 NCelE2=     1 NClLst=     1 CellRange=     0.0.
 One-electron integrals computed using PRISM.
 One-electron integral symmetry used in STVInt
 PrsmSu:  requested number of processors reduced to:   4 ShMem   1 Linda.
 PrsmSu:  requested number of processors reduced to:  21 ShMem   1 Linda.
 NBasis=    79 RedAO= T EigKep=  1.56D-03  NBF=    23     7     7     7     2    11    11    11
 NBsUse=    79 1.00D-06 EigRej= -1.00D+00 NBFU=    23     7     7     7     2    11    11    11
 Precomputing XC quadrature grid using
 IXCGrd= 4 IRadAn=           5 IRanWt=          -1 IRanGd=           0 AccXCQ= 0.00D+00.
 Generated NRdTot=       0 NPtTot=           0 NUsed=           0 NTot=          32
 NSgBfM=    96    96    96    96    96 MxSgAt=     1 MxSgA2=     1.
 Leave Link  302 at Sun Apr 18 01:26:41 2021, MaxMem=   104857600 cpu:             650.6 elap:              13.9
 (Enter /s/ls4/users/knvvv/bin/g16sse/l303.exe)
 DipDrv:  MaxL=1.
 Leave Link  303 at Sun Apr 18 01:26:42 2021, MaxMem=   104857600 cpu:              17.6 elap:               0.4
 (Enter /s/ls4/users/knvvv/bin/g16sse/l401.exe)
 SCF N**3 symmetry information disabled.
 ExpMin= 3.01D-02 ExpMax= 1.67D+06 ExpMxC= 1.90D+03 IAcc=3 IRadAn=         5 AccDes= 0.00D+00
 Harris functional with IExCor= 1009 and IRadAn=       5 diagonalized for initial guess.
 HarFok:  IExCor= 1009 AccDes= 0.00D+00 IRadAn=         5 IDoV= 1 UseB2=F ITyADJ=14
 ICtDFT=  3500011 ScaDFX=  1.000000  1.000000  1.000000  1.000000
 FoFCou: FMM=F IPFlag=           0 FMFlag=      100000 FMFlg1=           0
         NFxFlg=           0 DoJE=T BraDBF=F KetDBF=T FulRan=T
         wScrn=  0.000000 ICntrl=       500 IOpCl=  0 I1Cent=   200000004 NGrid=           0
         NMat0=    1 NMatS0=      1 NMatT0=    0 NMatD0=    1 NMtDS0=    0 NMtDT0=    0
 Petite list used in FoFCou.
 CoulSu:  requested number of processors reduced to:  21 ShMem   1 Linda.
 CoulSu:  requested number of processors reduced to:  21 ShMem   1 Linda.
 CoulSu:  requested number of processors reduced to:  21 ShMem   1 Linda.
 CoulSu:  requested number of processors reduced to:  21 ShMem   1 Linda.
 Harris En= -527.247631801036    
 JPrj=0 DoOrth=F DoCkMO=F.
 Initial guess orbital symmetries:
       Occupied  (A1G) (A1G) (T1U) (T1U) (T1U) (A1G) (T1U) (T1U)
                 (T1U)
       Virtual   (A1G) (T1U) (T1U) (T1U) (T2G) (T2G) (T2G) (EG)
                 (EG) (T1U) (T1U) (T1U) (T2G) (T2G) (T2G) (EG)
                 (EG) (A1G) (T1U) (T1U) (T1U) (T2G) (T2G) (T2G)
                 (EG) (EG) (T2U) (T2U) (T2U) (A2U) (T1U) (T1U)
                 (T1U) (A1G) (T2G) (T2G) (T2G) (EG) (EG) (T1G)
                 (T1G) (T1G) (T2G) (T2G) (T2G) (EG) (EG) (A1G)
                 (T1U) (T1U) (T1U) (T2U) (T2U) (T2U) (A2U) (T1U)
                 (T1U) (T1U) (A1G) (T2G) (T2G) (T2G) (EG) (EG)
                 (A1G) (T1U) (T1U) (T1U) (A1G) (A1G)
 The electronic state of the initial guess is 1-A1G.
 Leave Link  401 at Sun Apr 18 01:26:51 2021, MaxMem=   104857600 cpu:             453.6 elap:               9.8
 (Enter /s/ls4/users/knvvv/bin/g16sse/l502.exe)
 Keep R1 ints in memory in symmetry-blocked form, NReq=59211965.
 FoFCou: FMM=F IPFlag=           0 FMFlag=           0 FMFlg1=           0
         NFxFlg=           0 DoJE=F BraDBF=F KetDBF=F FulRan=T
         wScrn=  0.000000 ICntrl=       600 IOpCl=  0 I1Cent=           0 NGrid=           0
         NMat0=    1 NMatS0=   3160 NMatT0=    0 NMatD0=    1 NMtDS0=    0 NMtDT0=    0
 Petite list used in FoFCou.
 CoulSu:  requested number of processors reduced to:  22 ShMem   1 Linda.
 Closed shell SCF:
 Using DIIS extrapolation, IDIIS=  1040.
 NGot=   104857600 LenX=   104166746 LenY=   104157089
 Requested convergence on RMS density matrix=1.00D-08 within 128 cycles.
 Requested convergence on MAX density matrix=1.00D-06.
 Requested convergence on             energy=1.00D-06.
 No special actions if energy rises.

 Cycle   1  Pass 1  IDiag  1:
 E= -527.521343618480    
 DIIS: error= 5.32D-02 at cycle   1 NSaved=   1.
 NSaved= 1 IEnMin= 1 EnMin= -527.521343618480     IErMin= 1 ErrMin= 5.32D-02
 ErrMax= 5.32D-02  0.00D+00 EMaxC= 1.00D-01 BMatC= 9.61D-02 BMatP= 9.61D-02
 IDIUse=3 WtCom= 4.68D-01 WtEn= 5.32D-01
 Coeff-Com:  0.100D+01
 Coeff-En:   0.100D+01
 Coeff:      0.100D+01
 Gap=     0.606 Goal=   None    Shift=    0.000
 GapD=    0.606 DampG=2.000 DampE=0.500 DampFc=1.0000 IDamp=-1.
 RMSDP=2.30D-03 MaxDP=5.55D-02              OVMax= 5.16D-02

 Cycle   2  Pass 1  IDiag  1:
 E= -527.535235735499     Delta-E=       -0.013892117018 Rises=F Damp=F
 DIIS: error= 1.91D-02 at cycle   2 NSaved=   2.
 NSaved= 2 IEnMin= 2 EnMin= -527.535235735499     IErMin= 2 ErrMin= 1.91D-02
 ErrMax= 1.91D-02  0.00D+00 EMaxC= 1.00D-01 BMatC= 1.29D-02 BMatP= 9.61D-02
 IDIUse=3 WtCom= 8.09D-01 WtEn= 1.91D-01
 Coeff-Com:  0.219D+00 0.781D+00
 Coeff-En:   0.000D+00 0.100D+01
 Coeff:      0.177D+00 0.823D+00
 Gap=     0.525 Goal=   None    Shift=    0.000
 RMSDP=8.49D-04 MaxDP=2.03D-02 DE=-1.39D-02 OVMax= 2.22D-02

 Cycle   3  Pass 1  IDiag  1:
 E= -527.539243861056     Delta-E=       -0.004008125557 Rises=F Damp=F
 DIIS: error= 4.88D-03 at cycle   3 NSaved=   3.
 NSaved= 3 IEnMin= 3 EnMin= -527.539243861056     IErMin= 3 ErrMin= 4.88D-03
 ErrMax= 4.88D-03  0.00D+00 EMaxC= 1.00D-01 BMatC= 8.75D-04 BMatP= 1.29D-02
 IDIUse=3 WtCom= 9.51D-01 WtEn= 4.88D-02
 Coeff-Com: -0.444D-02 0.201D+00 0.803D+00
 Coeff-En:   0.000D+00 0.000D+00 0.100D+01
 Coeff:     -0.423D-02 0.191D+00 0.813D+00
 Gap=     0.540 Goal=   None    Shift=    0.000
 RMSDP=2.19D-04 MaxDP=5.08D-03 DE=-4.01D-03 OVMax= 6.14D-03

 Cycle   4  Pass 1  IDiag  1:
 E= -527.539638465066     Delta-E=       -0.000394604011 Rises=F Damp=F
 DIIS: error= 3.90D-04 at cycle   4 NSaved=   4.
 NSaved= 4 IEnMin= 4 EnMin= -527.539638465066     IErMin= 4 ErrMin= 3.90D-04
 ErrMax= 3.90D-04  0.00D+00 EMaxC= 1.00D-01 BMatC= 5.77D-06 BMatP= 8.75D-04
 IDIUse=3 WtCom= 9.96D-01 WtEn= 3.90D-03
 Coeff-Com: -0.995D-03 0.217D-01 0.153D+00 0.826D+00
 Coeff-En:   0.000D+00 0.000D+00 0.000D+00 0.100D+01
 Coeff:     -0.991D-03 0.216D-01 0.152D+00 0.827D+00
 Gap=     0.538 Goal=   None    Shift=    0.000
 RMSDP=1.97D-05 MaxDP=4.62D-04 DE=-3.95D-04 OVMax= 5.03D-04

 Cycle   5  Pass 1  IDiag  1:
 E= -527.539641966065     Delta-E=       -0.000003500999 Rises=F Damp=F
 DIIS: error= 5.57D-06 at cycle   5 NSaved=   5.
 NSaved= 5 IEnMin= 5 EnMin= -527.539641966065     IErMin= 5 ErrMin= 5.57D-06
 ErrMax= 5.57D-06  0.00D+00 EMaxC= 1.00D-01 BMatC= 1.60D-09 BMatP= 5.77D-06
 IDIUse=1 WtCom= 1.00D+00 WtEn= 0.00D+00
 Coeff-Com:  0.159D-04-0.122D-02-0.755D-02-0.292D-01 0.104D+01
 Coeff:      0.159D-04-0.122D-02-0.755D-02-0.292D-01 0.104D+01
 Gap=     0.538 Goal=   None    Shift=    0.000
 RMSDP=1.26D-06 MaxDP=5.05D-05 DE=-3.50D-06 OVMax= 1.72D-05

 Cycle   6  Pass 1  IDiag  1:
 E= -527.539641968028     Delta-E=       -0.000000001962 Rises=F Damp=F
 DIIS: error= 1.14D-06 at cycle   6 NSaved=   6.
 NSaved= 6 IEnMin= 6 EnMin= -527.539641968028     IErMin= 6 ErrMin= 1.14D-06
 ErrMax= 1.14D-06  0.00D+00 EMaxC= 1.00D-01 BMatC= 1.78D-11 BMatP= 1.60D-09
 IDIUse=1 WtCom= 1.00D+00 WtEn= 0.00D+00
 Coeff-Com:  0.143D-05 0.141D-05 0.154D-03 0.323D-03-0.101D+00 0.110D+01
 Coeff:      0.143D-05 0.141D-05 0.154D-03 0.323D-03-0.101D+00 0.110D+01
 Gap=     0.538 Goal=   None    Shift=    0.000
 RMSDP=1.44D-07 MaxDP=6.14D-06 DE=-1.96D-09 OVMax= 1.92D-06

 Cycle   7  Pass 1  IDiag  1:
 E= -527.539641968046     Delta-E=       -0.000000000018 Rises=F Damp=F
 DIIS: error= 2.43D-08 at cycle   7 NSaved=   7.
 NSaved= 7 IEnMin= 7 EnMin= -527.539641968046     IErMin= 7 ErrMin= 2.43D-08
 ErrMax= 2.43D-08  0.00D+00 EMaxC= 1.00D-01 BMatC= 1.45D-14 BMatP= 1.78D-11
 IDIUse=1 WtCom= 1.00D+00 WtEn= 0.00D+00
 Coeff-Com: -0.133D-06 0.484D-05 0.159D-04-0.124D-04 0.288D-04-0.240D-01
 Coeff-Com:  0.102D+01
 Coeff:     -0.133D-06 0.484D-05 0.159D-04-0.124D-04 0.288D-04-0.240D-01
 Coeff:      0.102D+01
 Gap=     0.538 Goal=   None    Shift=    0.000
 RMSDP=3.02D-09 MaxDP=1.48D-07 DE=-1.83D-11 OVMax= 6.07D-08

 SCF Done:  E(RM062X) =  -527.539641968     A.U. after    7 cycles
            NFock=  7  Conv=0.30D-08     -V/T= 2.0013
 KE= 5.268340097005D+02 PE=-1.255275088499D+03 EE= 2.009014368304D+02
 Leave Link  502 at Sun Apr 18 01:28:37 2021, MaxMem=   104857600 cpu:            4939.7 elap:             105.4
 (Enter /s/ls4/users/knvvv/bin/g16sse/l601.exe)
 Copying SCF densities to generalized density rwf, IOpCl= 0 IROHF=0.

 **********************************************************************

            Population analysis using the SCF density.

 **********************************************************************

 Orbital symmetries:
       Occupied  (A1G) (A1G) (T1U) (T1U) (T1U) (A1G) (T1U) (T1U)
                 (T1U)
       Virtual   (T1U) (T1U) (T1U) (A1G) (T2G) (T2G) (T2G) (EG)
                 (EG) (T1U) (T1U) (T1U) (T2G) (T2G) (T2G) (EG)
                 (EG) (A1G) (T1U) (T1U) (T1U) (T2G) (T2G) (T2G)
                 (EG) (EG) (T2U) (T2U) (T2U) (A2U) (T1U) (T1U)
                 (T1U) (A1G) (T2G) (T2G) (T2G) (EG) (EG) (?A) (?A)
                 (?A) (?A) (?A) (?A) (EG) (EG) (A1G) (T1U) (T1U)
                 (T1U) (?B) (?B) (?B) (?B) (T1U) (T1U) (T1U) (A1G)
                 (T2G) (T2G) (T2G) (EG) (EG) (A1G) (T1U) (T1U)
                 (T1U) (A1G) (A1G)
 The electronic state is 1-A1G.
 Alpha  occ. eigenvalues -- -116.28648 -11.50413  -9.02477  -9.02477  -9.02477
 Alpha  occ. eigenvalues --   -1.07596  -0.49811  -0.49811  -0.49811
 Alpha virt. eigenvalues --    0.04023   0.04023   0.04023   0.06541   0.21253
 Alpha virt. eigenvalues --    0.21253   0.21253   0.21253   0.21253   0.33904
 Alpha virt. eigenvalues --    0.33904   0.33904   0.56984   0.56984   0.56984
 Alpha virt. eigenvalues --    0.56984   0.56984   0.60295   1.33378   1.33378
 Alpha virt. eigenvalues --    1.33378   1.58717   1.58717   1.58717   1.58717
 Alpha virt. eigenvalues --    1.58717   1.68750   1.68750   1.68750   1.68750
 Alpha virt. eigenvalues --    1.68750   1.68750   1.68750   2.51588   4.00815
 Alpha virt. eigenvalues --    4.00815   4.00815   4.00815   4.00815   4.30501
 Alpha virt. eigenvalues --    4.30501   4.30501   4.30501   4.30501   4.30501
 Alpha virt. eigenvalues --    4.30501   4.30501   4.30501   4.52557   4.52557
 Alpha virt. eigenvalues --    4.52557   4.74686   4.74686   4.74686   4.74686
 Alpha virt. eigenvalues --    4.74686   4.74686   4.74686   9.72123  12.91459
 Alpha virt. eigenvalues --   12.91459  12.91459  12.91459  12.91459  33.02398
 Alpha virt. eigenvalues --   54.61435  54.61435  54.61435 113.23014 601.60135
          Condensed to atoms (all electrons):
               1
     1  Ar  18.000000
 Mulliken charges:
               1
     1  Ar  -0.000000
 Sum of Mulliken charges =  -0.00000
 Mulliken charges with hydrogens summed into heavy atoms:
               1
     1  Ar  -0.000000
 Electronic spatial extent (au):  <R**2>=             26.0722
 Charge=             -0.0000 electrons
 Dipole moment (field-independent basis, Debye):
    X=             -0.0000    Y=             -0.0000    Z=              0.0000  Tot=              0.0000
 Quadrupole moment (field-independent basis, Debye-Ang):
   XX=            -11.6893   YY=            -11.6893   ZZ=            -11.6893
   XY=             -0.0000   XZ=              0.0000   YZ=              0.0000
 Traceless Quadrupole moment (field-independent basis, Debye-Ang):
   XX=             -0.0000   YY=             -0.0000   ZZ=             -0.0000
   XY=             -0.0000   XZ=              0.0000   YZ=              0.0000
 Octapole moment (field-independent basis, Debye-Ang**2):
  XXX=              0.0000  YYY=             -0.0000  ZZZ=              0.0000  XYY=             -0.0000
  XXY=              0.0000  XXZ=              0.0000  XZZ=             -0.0000  YZZ=              0.0000
  YYZ=              0.0000  XYZ=             -0.0000
 Hexadecapole moment (field-independent basis, Debye-Ang**3):
 XXXX=            -11.1020 YYYY=            -11.1020 ZZZZ=            -11.1020 XXXY=              0.0000
 XXXZ=             -0.0000 YYYX=             -0.0000 YYYZ=              0.0000 ZZZX=              0.0000
 ZZZY=             -0.0000 XXYY=             -3.7007 XXZZ=             -3.7007 YYZZ=             -3.7007
 XXYZ=             -0.0000 YYXZ=              0.0000 ZZXY=             -0.0000
 N-N= 0.000000000000D+00 E-N=-1.255275088130D+03  KE= 5.268340097005D+02
 PrsmSu:  requested number of processors reduced to:  21 ShMem   1 Linda.
 No NMR shielding tensors so no spin-rotation constants.
 Leave Link  601 at Sun Apr 18 01:28:42 2021, MaxMem=   104857600 cpu:             236.9 elap:               5.2
 (Enter /s/ls4/users/knvvv/bin/g16sse/l801.exe)
 DoSCS=F DFT=T ScalE2(SS,OS)=  1.000000  1.000000
 Range of M.O.s used for correlation:     1    79
 NBasis=    79 NAE=     9 NBE=     9 NFC=     0 NFV=     0
 NROrb=     79 NOA=     9 NOB=     9 NVA=    70 NVB=    70

 **** Warning!!: The largest alpha MO coefficient is  0.10594331D+02

 Leave Link  801 at Sun Apr 18 01:28:42 2021, MaxMem=   104857600 cpu:               4.6 elap:               0.1
 (Enter /s/ls4/users/knvvv/bin/g16sse/l914.exe)
 RHF ground state
 Doing stability rather than CIS.
 Two-electron integrals replicated using symmetry.
 MDV=   104857600 DFT=T DoStab=T Mixed=T DoRPA=F DoScal=F NonHer=F
 Making orbital integer symmetry assigments:
 Orbital symmetries:
       Occupied  (A1G) (A1G) (T1U) (T1U) (T1U) (A1G) (T1U) (T1U)
                 (T1U)
       Virtual   (T1U) (T1U) (T1U) (A1G) (T2G) (T2G) (T2G) (EG)
                 (EG) (T1U) (T1U) (T1U) (T2G) (T2G) (T2G) (EG)
                 (EG) (A1G) (T1U) (T1U) (T1U) (T2G) (T2G) (T2G)
                 (EG) (EG) (T2U) (T2U) (T2U) (A2U) (T1U) (T1U)
                 (T1U) (A1G) (T2G) (T2G) (T2G) (EG) (EG) (?A) (?A)
                 (?A) (?A) (?A) (?A) (EG) (EG) (A1G) (T1U) (T1U)
                 (T1U) (?B) (?B) (?B) (?B) (T1U) (T1U) (T1U) (A1G)
                 (T2G) (T2G) (T2G) (EG) (EG) (A1G) (T1U) (T1U)
                 (T1U) (A1G) (A1G)
    48 initial guesses have been made.
 Convergence on wavefunction:    0.001000000000000
 Davidson Disk Diagonalization:  ConvIn= 1.00D-03 SkipCon=T Conv= 1.00D-03.
 Max sub-space:  2000 roots to seek:    48 dimension of matrix:         1260
 Iteration     1 Dimension    48 NMult     0 NNew     48
 Estimated number of processors is:   20
 CISAX will form     1 AO SS matrices at one time.
 NMat=     1 NSing=     1 JSym2X= 2.
 FoFJK:  IHMeth= 1 ICntrl=       0 DoSepK=F KAlg= 0 I1Cent=           0 FoldK=F
 IRaf= 990000000 NMat=       1 IRICut=       1 DoRegI=T DoRafI=F ISym2E= 2 IDoP0=0 IntGTp=1.
 FoFCou: FMM=F IPFlag=           0 FMFlag=      100000 FMFlg1=           0
         NFxFlg=           0 DoJE=F BraDBF=F KetDBF=F FulRan=T
         wScrn=  0.000000 ICntrl=         0 IOpCl=  0 I1Cent=           0 NGrid=           0
         NMat0=    1 NMatS0=      1 NMatT0=    0 NMatD0=    1 NMtDS0=    0 NMtDT0=    0
 Integrals replicated using symmetry in FoFCou.
 CoulSu:  requested number of processors reduced to:  21 ShMem   1 Linda.
 NMat=     1 NSing=     1 JSym2X= 2.
 CoulSu:  requested number of processors reduced to:  21 ShMem   1 Linda.
 NMat=     1 NSing=     1 JSym2X= 2.
 CoulSu:  requested number of processors reduced to:  21 ShMem   1 Linda.
 NMat=     1 NSing=     1 JSym2X= 2.
 CoulSu:  requested number of processors reduced to:  21 ShMem   1 Linda.
 NMat=     1 NSing=     1 JSym2X= 2.
 CoulSu:  requested number of processors reduced to:  21 ShMem   1 Linda.
 NMat=     1 NSing=     1 JSym2X= 2.
 CoulSu:  requested number of processors reduced to:  21 ShMem   1 Linda.
 NMat=     1 NSing=     1 JSym2X= 2.
 CoulSu:  requested number of processors reduced to:  21 ShMem   1 Linda.
 NMat=     1 NSing=     1 JSym2X= 2.
 CoulSu:  requested number of processors reduced to:  21 ShMem   1 Linda.
 NMat=     1 NSing=     1 JSym2X= 2.
 CoulSu:  requested number of processors reduced to:  21 ShMem   1 Linda.
 NMat=     1 NSing=     1 JSym2X= 2.
 CoulSu:  requested number of processors reduced to:  21 ShMem   1 Linda.
 NMat=     1 NSing=     1 JSym2X= 2.
 CoulSu:  requested number of processors reduced to:  21 ShMem   1 Linda.
 NMat=     1 NSing=     1 JSym2X= 2.
 CoulSu:  requested number of processors reduced to:  21 ShMem   1 Linda.
 NMat=     1 NSing=     1 JSym2X= 2.
 CoulSu:  requested number of processors reduced to:  21 ShMem   1 Linda.
 NMat=     1 NSing=     1 JSym2X= 2.
 CoulSu:  requested number of processors reduced to:  21 ShMem   1 Linda.
 NMat=     1 NSing=     1 JSym2X= 2.
 CoulSu:  requested number of processors reduced to:  21 ShMem   1 Linda.
 NMat=     1 NSing=     1 JSym2X= 2.
 CoulSu:  requested number of processors reduced to:  21 ShMem   1 Linda.
 NMat=     1 NSing=     1 JSym2X= 2.
 CoulSu:  requested number of processors reduced to:  21 ShMem   1 Linda.
 NMat=     1 NSing=     1 JSym2X= 2.
 CoulSu:  requested number of processors reduced to:  21 ShMem   1 Linda.
 NMat=     1 NSing=     1 JSym2X= 2.
 CoulSu:  requested number of processors reduced to:  21 ShMem   1 Linda.
 NMat=     1 NSing=     1 JSym2X= 2.
 CoulSu:  requested number of processors reduced to:  21 ShMem   1 Linda.
 NMat=     1 NSing=     1 JSym2X= 2.
 CoulSu:  requested number of processors reduced to:  21 ShMem   1 Linda.
 NMat=     1 NSing=     1 JSym2X= 2.
 CoulSu:  requested number of processors reduced to:  21 ShMem   1 Linda.
 NMat=     1 NSing=     1 JSym2X= 2.
 CoulSu:  requested number of processors reduced to:  21 ShMem   1 Linda.
 NMat=     1 NSing=     1 JSym2X= 2.
 CoulSu:  requested number of processors reduced to:  21 ShMem   1 Linda.
 NMat=     1 NSing=     0 JSym2X= 2.
 CoulSu:  requested number of processors reduced to:  21 ShMem   1 Linda.
 NMat=     1 NSing=     0 JSym2X= 2.
 CoulSu:  requested number of processors reduced to:  21 ShMem   1 Linda.
 NMat=     1 NSing=     0 JSym2X= 2.
 CoulSu:  requested number of processors reduced to:  21 ShMem   1 Linda.
 NMat=     1 NSing=     0 JSym2X= 2.
 CoulSu:  requested number of processors reduced to:  21 ShMem   1 Linda.
 NMat=     1 NSing=     0 JSym2X= 2.
 CoulSu:  requested number of processors reduced to:  21 ShMem   1 Linda.
 NMat=     1 NSing=     0 JSym2X= 2.
 CoulSu:  requested number of processors reduced to:  21 ShMem   1 Linda.
 NMat=     1 NSing=     0 JSym2X= 2.
 CoulSu:  requested number of processors reduced to:  21 ShMem   1 Linda.
 NMat=     1 NSing=     0 JSym2X= 2.
 CoulSu:  requested number of processors reduced to:  21 ShMem   1 Linda.
 NMat=     1 NSing=     0 JSym2X= 2.
 CoulSu:  requested number of processors reduced to:  21 ShMem   1 Linda.
 NMat=     1 NSing=     0 JSym2X= 2.
 CoulSu:  requested number of processors reduced to:  21 ShMem   1 Linda.
 NMat=     1 NSing=     0 JSym2X= 2.
 CoulSu:  requested number of processors reduced to:  21 ShMem   1 Linda.
 NMat=     1 NSing=     0 JSym2X= 2.
 CoulSu:  requested number of processors reduced to:  21 ShMem   1 Linda.
 NMat=     1 NSing=     0 JSym2X= 2.
 CoulSu:  requested number of processors reduced to:  21 ShMem   1 Linda.
 NMat=     1 NSing=     0 JSym2X= 2.
 CoulSu:  requested number of processors reduced to:  21 ShMem   1 Linda.
 NMat=     1 NSing=     0 JSym2X= 2.
 CoulSu:  requested number of processors reduced to:  21 ShMem   1 Linda.
 NMat=     1 NSing=     0 JSym2X= 2.
 CoulSu:  requested number of processors reduced to:  21 ShMem   1 Linda.
 NMat=     1 NSing=     0 JSym2X= 2.
 CoulSu:  requested number of processors reduced to:  21 ShMem   1 Linda.
 NMat=     1 NSing=     0 JSym2X= 2.
 CoulSu:  requested number of processors reduced to:  21 ShMem   1 Linda.
 NMat=     1 NSing=     0 JSym2X= 2.
 CoulSu:  requested number of processors reduced to:  21 ShMem   1 Linda.
 NMat=     1 NSing=     0 JSym2X= 2.
 CoulSu:  requested number of processors reduced to:  21 ShMem   1 Linda.
 NMat=     1 NSing=     0 JSym2X= 2.
 CoulSu:  requested number of processors reduced to:  21 ShMem   1 Linda.
 NMat=     1 NSing=     0 JSym2X= 2.
 CoulSu:  requested number of processors reduced to:  21 ShMem   1 Linda.
 NMat=     1 NSing=     0 JSym2X= 2.
 CoulSu:  requested number of processors reduced to:  21 ShMem   1 Linda.
 NMat=     1 NSing=     0 JSym2X= 2.
 CoulSu:  requested number of processors reduced to:  21 ShMem   1 Linda.
 New state      1 was old state     24
 Excitation Energies [eV] at current iteration:
 Root      1 :    12.069981993703720
 Root      2 :    12.080016964872640
 Root      3 :    12.102419098698230
 Root      4 :    12.174890876779340
 Root      5 :    12.175068129203360
 Root      6 :    12.175537108732100
 Root      7 :    12.220344041945250
 Root      8 :    12.275924315592780
 Root      9 :    12.275924315667390
 Root     10 :    12.275924315731110
 Root     11 :    12.275924315769760
 Root     12 :    12.275924315793340
 Root     13 :    12.351169401916240
 Root     14 :    12.351169401917310
 Root     15 :    12.351169401919630
 Root     16 :    12.351169401919860
 Root     17 :    12.351169401920180
 Root     18 :    12.351169401921660
 Root     19 :    12.444400112906370
 Root     20 :    12.444400112949000
 Root     21 :    12.444400112969860
 Root     22 :    12.444400112991770
 Root     23 :    12.444400113000690
 Root     24 :    13.693846987405290
 Root     25 :    15.170186780570260
 Root     26 :    15.170186780695900
 Root     27 :    15.170186780719170
 Root     28 :    15.170186780737060
 Root     29 :    15.281985433626450
 Root     30 :    15.281985433744650
 Root     31 :    15.281985433763860
 Root     32 :    15.281985433778790
 Root     33 :    15.312341655287860
 Root     34 :    15.355937719435030
 Root     35 :    15.382660896596520
 Root     36 :    15.416770122779110
 Root     37 :    15.526764609734120
 Root     38 :    15.534941593315070
 Root     39 :    15.542056945961110
 Root     40 :    15.542056945961960
 Root     41 :    15.542056945962160
 Root     42 :    15.542056945962640
 Root     43 :    15.779120073072580
 Root     44 :    16.027752708680910
 Root     45 :    16.106718886653070
 Root     46 :    18.153934250666270
 Root     47 :    19.264434141584360
 Root     48 :    19.752281313483080
 Iteration     2 Dimension    96 NMult    48 NNew     48
 Estimated number of processors is:   20
 CISAX will form     1 AO SS matrices at one time.
 NMat=     1 NSing=     1 JSym2X= 2.
 CoulSu:  requested number of processors reduced to:  21 ShMem   1 Linda.
 NMat=     1 NSing=     1 JSym2X= 2.
 CoulSu:  requested number of processors reduced to:  21 ShMem   1 Linda.
 NMat=     1 NSing=     1 JSym2X= 2.
 CoulSu:  requested number of processors reduced to:  21 ShMem   1 Linda.
 NMat=     1 NSing=     1 JSym2X= 2.
 CoulSu:  requested number of processors reduced to:  21 ShMem   1 Linda.
 NMat=     1 NSing=     1 JSym2X= 2.
 CoulSu:  requested number of processors reduced to:  21 ShMem   1 Linda.
 NMat=     1 NSing=     1 JSym2X= 2.
 CoulSu:  requested number of processors reduced to:  21 ShMem   1 Linda.
 NMat=     1 NSing=     1 JSym2X= 2.
 CoulSu:  requested number of processors reduced to:  21 ShMem   1 Linda.
 NMat=     1 NSing=     1 JSym2X= 2.
 CoulSu:  requested number of processors reduced to:  21 ShMem   1 Linda.
 NMat=     1 NSing=     1 JSym2X= 2.
 CoulSu:  requested number of processors reduced to:  21 ShMem   1 Linda.
 NMat=     1 NSing=     1 JSym2X= 2.
 CoulSu:  requested number of processors reduced to:  21 ShMem   1 Linda.
 NMat=     1 NSing=     1 JSym2X= 2.
 CoulSu:  requested number of processors reduced to:  21 ShMem   1 Linda.
 NMat=     1 NSing=     1 JSym2X= 2.
 CoulSu:  requested number of processors reduced to:  21 ShMem   1 Linda.
 NMat=     1 NSing=     1 JSym2X= 2.
 CoulSu:  requested number of processors reduced to:  21 ShMem   1 Linda.
 NMat=     1 NSing=     1 JSym2X= 2.
 CoulSu:  requested number of processors reduced to:  21 ShMem   1 Linda.
 NMat=     1 NSing=     1 JSym2X= 2.
 CoulSu:  requested number of processors reduced to:  21 ShMem   1 Linda.
 NMat=     1 NSing=     1 JSym2X= 2.
 CoulSu:  requested number of processors reduced to:  21 ShMem   1 Linda.
 NMat=     1 NSing=     1 JSym2X= 2.
 CoulSu:  requested number of processors reduced to:  21 ShMem   1 Linda.
 NMat=     1 NSing=     1 JSym2X= 2.
 CoulSu:  requested number of processors reduced to:  21 ShMem   1 Linda.
 NMat=     1 NSing=     1 JSym2X= 2.
 CoulSu:  requested number of processors reduced to:  21 ShMem   1 Linda.
 NMat=     1 NSing=     1 JSym2X= 2.
 CoulSu:  requested number of processors reduced to:  21 ShMem   1 Linda.
 NMat=     1 NSing=     1 JSym2X= 2.
 CoulSu:  requested number of processors reduced to:  21 ShMem   1 Linda.
 NMat=     1 NSing=     1 JSym2X= 2.
 CoulSu:  requested number of processors reduced to:  21 ShMem   1 Linda.
 NMat=     1 NSing=     1 JSym2X= 2.
 CoulSu:  requested number of processors reduced to:  21 ShMem   1 Linda.
 NMat=     1 NSing=     1 JSym2X= 2.
 CoulSu:  requested number of processors reduced to:  21 ShMem   1 Linda.
 NMat=     1 NSing=     0 JSym2X= 2.
 CoulSu:  requested number of processors reduced to:  21 ShMem   1 Linda.
 NMat=     1 NSing=     0 JSym2X= 2.
 CoulSu:  requested number of processors reduced to:  21 ShMem   1 Linda.
 NMat=     1 NSing=     0 JSym2X= 2.
 CoulSu:  requested number of processors reduced to:  21 ShMem   1 Linda.
 NMat=     1 NSing=     0 JSym2X= 2.
 CoulSu:  requested number of processors reduced to:  21 ShMem   1 Linda.
 NMat=     1 NSing=     0 JSym2X= 2.
 CoulSu:  requested number of processors reduced to:  21 ShMem   1 Linda.
 NMat=     1 NSing=     0 JSym2X= 2.
 CoulSu:  requested number of processors reduced to:  21 ShMem   1 Linda.
 NMat=     1 NSing=     0 JSym2X= 2.
 CoulSu:  requested number of processors reduced to:  21 ShMem   1 Linda.
 NMat=     1 NSing=     0 JSym2X= 2.
 CoulSu:  requested number of processors reduced to:  21 ShMem   1 Linda.
 NMat=     1 NSing=     0 JSym2X= 2.
 CoulSu:  requested number of processors reduced to:  21 ShMem   1 Linda.
 NMat=     1 NSing=     0 JSym2X= 2.
 CoulSu:  requested number of processors reduced to:  21 ShMem   1 Linda.
 NMat=     1 NSing=     0 JSym2X= 2.
 CoulSu:  requested number of processors reduced to:  21 ShMem   1 Linda.
 NMat=     1 NSing=     0 JSym2X= 2.
 CoulSu:  requested number of processors reduced to:  21 ShMem   1 Linda.
 NMat=     1 NSing=     0 JSym2X= 2.
 CoulSu:  requested number of processors reduced to:  21 ShMem   1 Linda.
 NMat=     1 NSing=     0 JSym2X= 2.
 CoulSu:  requested number of processors reduced to:  21 ShMem   1 Linda.
 NMat=     1 NSing=     0 JSym2X= 2.
 CoulSu:  requested number of processors reduced to:  21 ShMem   1 Linda.
 NMat=     1 NSing=     0 JSym2X= 2.
 CoulSu:  requested number of processors reduced to:  21 ShMem   1 Linda.
 NMat=     1 NSing=     0 JSym2X= 2.
 CoulSu:  requested number of processors reduced to:  21 ShMem   1 Linda.
 NMat=     1 NSing=     0 JSym2X= 2.
 CoulSu:  requested number of processors reduced to:  21 ShMem   1 Linda.
 NMat=     1 NSing=     0 JSym2X= 2.
 CoulSu:  requested number of processors reduced to:  21 ShMem   1 Linda.
 NMat=     1 NSing=     0 JSym2X= 2.
 CoulSu:  requested number of processors reduced to:  21 ShMem   1 Linda.
 NMat=     1 NSing=     0 JSym2X= 2.
 CoulSu:  requested number of processors reduced to:  21 ShMem   1 Linda.
 NMat=     1 NSing=     0 JSym2X= 2.
 CoulSu:  requested number of processors reduced to:  21 ShMem   1 Linda.
 NMat=     1 NSing=     0 JSym2X= 2.
 CoulSu:  requested number of processors reduced to:  21 ShMem   1 Linda.
 NMat=     1 NSing=     0 JSym2X= 2.
 CoulSu:  requested number of processors reduced to:  21 ShMem   1 Linda.
 Root      1 not converged, maximum delta is    0.067430653740883
 Excitation Energies [eV] at current iteration:
 Root      1 :    11.814453106016260   Change is   -0.255528887687455
 Root      2 :    11.815481843836320   Change is   -0.264535121036316
 Root      3 :    11.821025540310430   Change is   -0.281393558387802
 Root      4 :    12.094305106123960   Change is   -0.081232002608140
 Root      5 :    12.096339729903650   Change is   -0.078728399299707
 Root      6 :    12.096854061599250   Change is   -0.078036815180085
 Root      7 :    12.124239064146950   Change is   -0.096104977798293
 Root      8 :    12.161715709421160   Change is   -0.114208606372186
 Root      9 :    12.161715763768460   Change is   -0.114208551962650
 Root     10 :    12.161715811505360   Change is   -0.114208504264406
 Root     11 :    12.161715868703870   Change is   -0.114208446888908
 Root     12 :    12.161715882219500   Change is   -0.114208433447891
 Root     13 :    12.295523755921600   Change is   -0.055645645994645
 Root     14 :    12.295523793687680   Change is   -0.055645608231944
 Root     15 :    12.295523800243780   Change is   -0.055645601676400
 Root     16 :    12.295523800823520   Change is   -0.055645601098134
 Root     17 :    12.295523802180510   Change is   -0.055645599736794
 Root     18 :    12.295523840082530   Change is   -0.055645561837328
 Root     19 :    12.329210025004840   Change is   -0.115190087986935
 Root     20 :    12.329210183917560   Change is   -0.115189929031439
 Root     21 :    12.329210191091240   Change is   -0.115189921815127
 Root     22 :    12.329210236793860   Change is   -0.115189876176008
 Root     23 :    12.329210338972700   Change is   -0.115189774027992
 Root     24 :    13.244911740580370   Change is   -0.448935246824923
 Root     25 :    14.321895031807210   Change is   -0.848291748888684
 Root     26 :    14.321895039896900   Change is   -0.848291740673359
 Root     27 :    14.321895125297630   Change is   -0.848291655421535
 Root     28 :    14.321895230664270   Change is   -0.848291550072794
 Root     29 :    14.536033590776520   Change is   -1.243086482296062
 Root     30 :    14.539630773243140   Change is   -0.816306946191891
 Root     31 :    14.561255117860820   Change is   -0.751086537427041
 Root     32 :    14.886499120647030   Change is   -1.220219766006047
 Root     33 :    15.058802001724810   Change is   -0.968950706956097
 Root     34 :    15.097637111397600   Change is   -0.184348322228849
 Root     35 :    15.097637430261270   Change is   -0.184348003502591
 Root     36 :    15.097637442842070   Change is   -0.184347990936719
 Root     37 :    15.097637715509410   Change is   -0.184347718235239
 Root     38 :    15.160560581423480   Change is   -0.256209541355631
 Root     39 :    15.179982937786510   Change is   -0.202677958810013
 Root     40 :    15.374523598254910   Change is   -0.160417995060159
 Root     41 :    15.391190121782860   Change is   -0.135574487951259
 Root     42 :    15.404131598208670   Change is   -0.137925347752438
 Root     43 :    15.404131598913160   Change is   -0.137925347049003
 Root     44 :    15.404131604275910   Change is   -0.137925341686044
 Root     45 :    15.404131605665730   Change is   -0.137925340296907
 Root     46 :    15.502326083378280   Change is   -3.762108058206077
 Root     47 :    15.503481367314080   Change is   -2.650452883352191
 Root     48 :    16.202937674342760
 Iteration     3 Dimension   102 NMult    96 NNew      6
 Estimated number of processors is:   20
 CISAX will form     1 AO SS matrices at one time.
 NMat=     1 NSing=     1 JSym2X= 2.
 CoulSu:  requested number of processors reduced to:  21 ShMem   1 Linda.
 NMat=     1 NSing=     1 JSym2X= 2.
 CoulSu:  requested number of processors reduced to:  21 ShMem   1 Linda.
 NMat=     1 NSing=     1 JSym2X= 2.
 CoulSu:  requested number of processors reduced to:  21 ShMem   1 Linda.
 NMat=     1 NSing=     0 JSym2X= 2.
 CoulSu:  requested number of processors reduced to:  21 ShMem   1 Linda.
 NMat=     1 NSing=     0 JSym2X= 2.
 CoulSu:  requested number of processors reduced to:  21 ShMem   1 Linda.
 NMat=     1 NSing=     0 JSym2X= 2.
 CoulSu:  requested number of processors reduced to:  21 ShMem   1 Linda.
 Root      1 not converged, maximum delta is    0.002055354041335
 Excitation Energies [eV] at current iteration:
 Root      1 :    11.813479295846430   Change is   -0.000973810169836
 Root      2 :    11.813643236660270   Change is   -0.001838607176047
 Root      3 :    11.814852438543250   Change is   -0.006173101767180
 Root      4 :    12.090522108718050   Change is   -0.003782997405902
 Root      5 :    12.090527207188420   Change is   -0.005812522715238
 Root      6 :    12.090533277944600   Change is   -0.006320783654656
 Iteration     4 Dimension   108 NMult   102 NNew      6
 Estimated number of processors is:   20
 CISAX will form     1 AO SS matrices at one time.
 NMat=     1 NSing=     1 JSym2X= 2.
 CoulSu:  requested number of processors reduced to:  21 ShMem   1 Linda.
 NMat=     1 NSing=     1 JSym2X= 2.
 CoulSu:  requested number of processors reduced to:  21 ShMem   1 Linda.
 NMat=     1 NSing=     1 JSym2X= 2.
 CoulSu:  requested number of processors reduced to:  21 ShMem   1 Linda.
 NMat=     1 NSing=     0 JSym2X= 2.
 CoulSu:  requested number of processors reduced to:  21 ShMem   1 Linda.
 NMat=     1 NSing=     0 JSym2X= 2.
 CoulSu:  requested number of processors reduced to:  21 ShMem   1 Linda.
 NMat=     1 NSing=     0 JSym2X= 2.
 CoulSu:  requested number of processors reduced to:  21 ShMem   1 Linda.
 Root      1 not converged, maximum delta is    0.001698332007742
 Excitation Energies [eV] at current iteration:
 Root      1 :    11.813404900907650   Change is   -0.000074394938776
 Root      2 :    11.813412249408740   Change is   -0.000230987251536
 Root      3 :    11.813488888548080   Change is   -0.001363549995168
 Root      4 :    12.090496922973940   Change is   -0.000025185744118
 Root      5 :    12.090496956173300   Change is   -0.000030251015120
 Root      6 :    12.090497896551950   Change is   -0.000035381392648
 Iteration     5 Dimension   114 NMult   108 NNew      6
 Estimated number of processors is:   20
 CISAX will form     1 AO SS matrices at one time.
 NMat=     1 NSing=     1 JSym2X= 2.
 CoulSu:  requested number of processors reduced to:  21 ShMem   1 Linda.
 NMat=     1 NSing=     1 JSym2X= 2.
 CoulSu:  requested number of processors reduced to:  21 ShMem   1 Linda.
 NMat=     1 NSing=     1 JSym2X= 2.
 CoulSu:  requested number of processors reduced to:  21 ShMem   1 Linda.
 NMat=     1 NSing=     0 JSym2X= 2.
 CoulSu:  requested number of processors reduced to:  21 ShMem   1 Linda.
 NMat=     1 NSing=     0 JSym2X= 2.
 CoulSu:  requested number of processors reduced to:  21 ShMem   1 Linda.
 NMat=     1 NSing=     0 JSym2X= 2.
 CoulSu:  requested number of processors reduced to:  21 ShMem   1 Linda.
 Root      1 not converged, maximum delta is    0.047876996648324
 Excitation Energies [eV] at current iteration:
 Root      1 :    11.813400860986460   Change is   -0.000004039921197
 Root      2 :    11.813400964385090   Change is   -0.000011285023653
 Root      3 :    11.813401815476300   Change is   -0.000087073071778
 Root      4 :    12.090496735745430   Change is   -0.000000220427870
 Root      5 :    12.090496764387220   Change is   -0.000000158586717
 Root      6 :    12.090496778217470   Change is   -0.000001118334479
 Iteration     6 Dimension   120 NMult   114 NNew      6
 Estimated number of processors is:   20
 CISAX will form     1 AO SS matrices at one time.
 NMat=     1 NSing=     1 JSym2X= 2.
 CoulSu:  requested number of processors reduced to:  21 ShMem   1 Linda.
 NMat=     1 NSing=     1 JSym2X= 2.
 CoulSu:  requested number of processors reduced to:  21 ShMem   1 Linda.
 NMat=     1 NSing=     1 JSym2X= 2.
 CoulSu:  requested number of processors reduced to:  21 ShMem   1 Linda.
 NMat=     1 NSing=     0 JSym2X= 2.
 CoulSu:  requested number of processors reduced to:  21 ShMem   1 Linda.
 NMat=     1 NSing=     0 JSym2X= 2.
 CoulSu:  requested number of processors reduced to:  21 ShMem   1 Linda.
 NMat=     1 NSing=     0 JSym2X= 2.
 CoulSu:  requested number of processors reduced to:  21 ShMem   1 Linda.
 New state      1 was old state      3
 Root      1 not converged, maximum delta is    0.208216636515806
 Excitation Energies [eV] at current iteration:
 Root      1 :    11.813400793366850   Change is   -0.000001022109450
 Root      2 :    11.813400803486260   Change is   -0.000000057500193
 Root      3 :    11.813400825279670   Change is   -0.000000139105416
 Root      4 :    12.090496725162690   Change is   -0.000000010582742
 Root      5 :    12.090496751383300   Change is   -0.000000026834169
 Root      6 :    12.090496757396240   Change is   -0.000000006990981
 Iteration     7 Dimension   126 NMult   120 NNew      6
 Estimated number of processors is:   20
 CISAX will form     1 AO SS matrices at one time.
 NMat=     1 NSing=     1 JSym2X= 2.
 CoulSu:  requested number of processors reduced to:  21 ShMem   1 Linda.
 NMat=     1 NSing=     1 JSym2X= 2.
 CoulSu:  requested number of processors reduced to:  21 ShMem   1 Linda.
 NMat=     1 NSing=     1 JSym2X= 2.
 CoulSu:  requested number of processors reduced to:  21 ShMem   1 Linda.
 NMat=     1 NSing=     0 JSym2X= 2.
 CoulSu:  requested number of processors reduced to:  21 ShMem   1 Linda.
 NMat=     1 NSing=     0 JSym2X= 2.
 CoulSu:  requested number of processors reduced to:  21 ShMem   1 Linda.
 NMat=     1 NSing=     0 JSym2X= 2.
 CoulSu:  requested number of processors reduced to:  21 ShMem   1 Linda.
 Root      1 not converged, maximum delta is    0.198555996766183
 Excitation Energies [eV] at current iteration:
 Root      1 :    11.813400780899690   Change is   -0.000000012467164
 Root      2 :    11.813400786008330   Change is   -0.000000017477933
 Root      3 :    11.813400819298580   Change is   -0.000000005981094
 Root      4 :    12.090496719798150   Change is   -0.000000037598086
 Root      5 :    12.090496722481280   Change is   -0.000000002681407
 Root      6 :    12.090496739968000   Change is   -0.000000011415303
 Iteration     8 Dimension   131 NMult   126 NNew      5
 Estimated number of processors is:   20
 CISAX will form     1 AO SS matrices at one time.
 NMat=     1 NSing=     1 JSym2X= 2.
 CoulSu:  requested number of processors reduced to:  21 ShMem   1 Linda.
 NMat=     1 NSing=     1 JSym2X= 2.
 CoulSu:  requested number of processors reduced to:  21 ShMem   1 Linda.
 NMat=     1 NSing=     0 JSym2X= 2.
 CoulSu:  requested number of processors reduced to:  21 ShMem   1 Linda.
 NMat=     1 NSing=     0 JSym2X= 2.
 CoulSu:  requested number of processors reduced to:  21 ShMem   1 Linda.
 NMat=     1 NSing=     0 JSym2X= 2.
 CoulSu:  requested number of processors reduced to:  21 ShMem   1 Linda.
 Root      1 not converged, maximum delta is    0.157843535567445
 Excitation Energies [eV] at current iteration:
 Root      1 :    11.813400774925090   Change is   -0.000000005974604
 Root      2 :    11.813400783709840   Change is   -0.000000002298492
 Root      3 :    11.813400806451840   Change is   -0.000000012846737
 Root      4 :    12.090496719699280   Change is   -0.000000000098871
 Root      5 :    12.090496721432250   Change is   -0.000000001049023
 Root      6 :    12.090496737505490   Change is   -0.000000002462503
 Convergence achieved on expansion vectors.
 ***********************************************************************
 Stability analysis using <AA,BB:AA,BB> singles matrix:
 ***********************************************************************
 1PDM for each excited state written to RWF  633
 Ground to excited state transition densities written to RWF  633

 Eigenvectors of the stability matrix:
 
 Eigenvector   1:      Triplet-T1U  Eigenvalue= 0.4341345  <S**2>=2.000
       7 -> 13         0.24228
       8 -> 13         0.52562
       9 -> 13        -0.38065
 
 Eigenvector   2:      Triplet-T1U  Eigenvalue= 0.4341345  <S**2>=2.000
       7 -> 13        -0.13337
       8 -> 13         0.43797
       9 -> 13         0.51987
 
 Eigenvector   3:      Triplet-T1U  Eigenvalue= 0.4341345  <S**2>=2.000
       7 -> 13         0.63512
       8 -> 13        -0.10854
       9 -> 13         0.25437
 
 Eigenvector   4:      Singlet-T1U  Eigenvalue= 0.4443176  <S**2>=0.000
       7 -> 13         0.58392
       8 -> 13        -0.16435
       9 -> 13         0.35933
 
 Eigenvector   5:      Singlet-T1U  Eigenvalue= 0.4443176  <S**2>=0.000
       7 -> 13         0.34336
       8 -> 13         0.52832
       9 -> 13        -0.31633
 
 Eigenvector   6:      Singlet-T1U  Eigenvalue= 0.4443176  <S**2>=0.000
       7 -> 13        -0.19552
       8 -> 13         0.43698
       9 -> 13         0.51759
 The wavefunction is stable under the perturbations considered.
 Leave Link  914 at Sun Apr 18 01:30:41 2021, MaxMem=   104857600 cpu:            3717.7 elap:             118.9
 (Enter /s/ls4/users/knvvv/bin/g16sse/l508.exe)
 The wavefunction is already stable.
 Leave Link  508 at Sun Apr 18 01:30:41 2021, MaxMem=   104857600 cpu:               1.2 elap:               0.0
 (Enter /s/ls4/users/knvvv/bin/g16sse/l601.exe)
 Copying SCF densities to generalized density rwf, IOpCl= 0 IROHF=0.

 **********************************************************************

            Population analysis using the SCF density.

 **********************************************************************

 Orbital symmetries:
       Occupied  (A1G) (A1G) (T1U) (T1U) (T1U) (A1G) (T1U) (T1U)
                 (T1U)
       Virtual   (T1U) (T1U) (T1U) (A1G) (T2G) (T2G) (T2G) (EG)
                 (EG) (T1U) (T1U) (T1U) (T2G) (T2G) (T2G) (EG)
                 (EG) (A1G) (T1U) (T1U) (T1U) (T2G) (T2G) (T2G)
                 (EG) (EG) (T2U) (T2U) (T2U) (A2U) (T1U) (T1U)
                 (T1U) (A1G) (T2G) (T2G) (T2G) (EG) (EG) (?A) (?A)
                 (?A) (?A) (?A) (?A) (EG) (EG) (A1G) (T1U) (T1U)
                 (T1U) (?B) (?B) (?B) (?B) (T1U) (T1U) (T1U) (A1G)
                 (T2G) (T2G) (T2G) (EG) (EG) (A1G) (T1U) (T1U)
                 (T1U) (A1G) (A1G)
 The electronic state is 1-A1G.
 Alpha  occ. eigenvalues -- -116.28648 -11.50413  -9.02477  -9.02477  -9.02477
 Alpha  occ. eigenvalues --   -1.07596  -0.49811  -0.49811  -0.49811
 Alpha virt. eigenvalues --    0.04023   0.04023   0.04023   0.06541   0.21253
 Alpha virt. eigenvalues --    0.21253   0.21253   0.21253   0.21253   0.33904
 Alpha virt. eigenvalues --    0.33904   0.33904   0.56984   0.56984   0.56984
 Alpha virt. eigenvalues --    0.56984   0.56984   0.60295   1.33378   1.33378
 Alpha virt. eigenvalues --    1.33378   1.58717   1.58717   1.58717   1.58717
 Alpha virt. eigenvalues --    1.58717   1.68750   1.68750   1.68750   1.68750
 Alpha virt. eigenvalues --    1.68750   1.68750   1.68750   2.51588   4.00815
 Alpha virt. eigenvalues --    4.00815   4.00815   4.00815   4.00815   4.30501
 Alpha virt. eigenvalues --    4.30501   4.30501   4.30501   4.30501   4.30501
 Alpha virt. eigenvalues --    4.30501   4.30501   4.30501   4.52557   4.52557
 Alpha virt. eigenvalues --    4.52557   4.74686   4.74686   4.74686   4.74686
 Alpha virt. eigenvalues --    4.74686   4.74686   4.74686   9.72123  12.91459
 Alpha virt. eigenvalues --   12.91459  12.91459  12.91459  12.91459  33.02398
 Alpha virt. eigenvalues --   54.61435  54.61435  54.61435 113.23014 601.60135
          Condensed to atoms (all electrons):
               1
     1  Ar  18.000000
 Mulliken charges:
               1
     1  Ar  -0.000000
 Sum of Mulliken charges =  -0.00000
 Mulliken charges with hydrogens summed into heavy atoms:
               1
     1  Ar  -0.000000
 Electronic spatial extent (au):  <R**2>=             26.0722
 Charge=             -0.0000 electrons
 Dipole moment (field-independent basis, Debye):
    X=             -0.0000    Y=             -0.0000    Z=              0.0000  Tot=              0.0000
 Quadrupole moment (field-independent basis, Debye-Ang):
   XX=            -11.6893   YY=            -11.6893   ZZ=            -11.6893
   XY=             -0.0000   XZ=              0.0000   YZ=              0.0000
 Traceless Quadrupole moment (field-independent basis, Debye-Ang):
   XX=             -0.0000   YY=             -0.0000   ZZ=             -0.0000
   XY=             -0.0000   XZ=              0.0000   YZ=              0.0000
 Octapole moment (field-independent basis, Debye-Ang**2):
  XXX=              0.0000  YYY=             -0.0000  ZZZ=              0.0000  XYY=             -0.0000
  XXY=              0.0000  XXZ=              0.0000  XZZ=             -0.0000  YZZ=              0.0000
  YYZ=              0.0000  XYZ=             -0.0000
 Hexadecapole moment (field-independent basis, Debye-Ang**3):
 XXXX=            -11.1020 YYYY=            -11.1020 ZZZZ=            -11.1020 XXXY=              0.0000
 XXXZ=             -0.0000 YYYX=             -0.0000 YYYZ=              0.0000 ZZZX=              0.0000
 ZZZY=             -0.0000 XXYY=             -3.7007 XXZZ=             -3.7007 YYZZ=             -3.7007
 XXYZ=             -0.0000 YYXZ=              0.0000 ZZXY=             -0.0000
 N-N= 0.000000000000D+00 E-N=-1.255275088130D+03  KE= 5.268340097005D+02
 PrsmSu:  requested number of processors reduced to:  21 ShMem   1 Linda.
 No NMR shielding tensors so no spin-rotation constants.
 Leave Link  601 at Sun Apr 18 01:30:46 2021, MaxMem=   104857600 cpu:             223.5 elap:               4.9
 (Enter /s/ls4/users/knvvv/bin/g16sse/l9999.exe)

 Test job not archived.
 1\1\GINC-N153\Stability\RM062X\Gen\Ar1\KNVVV\18-Apr-2021\0\\#P M062X/G
 EN Integral=UltraFineGrid SCF=NoSymm Stable=(RExt, Opt) IOp(1/33=1)\\D
 atabase calculations.\\0,1\Ar,0,0.,0.,0.\\Version=ES64L-G16RevA.03\Sta
 te=1-A1G\HF=-527.539642\RMSD=3.015e-09\Dipole=0.,0.,0.\Quadrupole=0.,0
 .,0.,0.,0.,0.\PG=OH [O(Ar1)]\\@


 WORK FAITHFULLY FOR EIGHT HOURS A DAY AND DON'T WORRY.
 IN TIME YOU MAY BECOME BOSS AND WORK TWELVE HOURS A DAY
 AND HAVE ALL THE WORRY.
 Job cpu time:       0 days  2 hours 51 minutes 59.9 seconds.
 Elapsed time:       0 days  0 hours  4 minutes 20.4 seconds.
 File lengths (MBytes):  RWF=     63 Int=      0 D2E=      0 Chk=      3 Scr=      1
 Normal termination of Gaussian 16 at Sun Apr 18 01:30:46 2021.
