 Entering Gaussian System, Link 0=/s/ls4/users/knvvv/bin/g16sse/g16
 Input=data/database/M062X--def2-QZVPPD--15_C12H12_Platonic24.gjf
 Output=data/database/M062X--def2-QZVPPD--15_C12H12_Platonic24.log
 Initial command:
 /s/ls4/users/knvvv/bin/g16sse/l1.exe "/s/ls4/users/knvvv/bin/scratch/Gau-45831.inp" -scrdir="/s/ls4/users/knvvv/bin/scratch/"
 Entering Link 1 = /s/ls4/users/knvvv/bin/g16sse/l1.exe PID=     45832.
  
 Copyright (c) 1988,1990,1992,1993,1995,1998,2003,2009,2016,
            Gaussian, Inc.  All Rights Reserved.
  
 This is part of the Gaussian(R) 16 program.  It is based on
 the Gaussian(R) 09 system (copyright 2009, Gaussian, Inc.),
 the Gaussian(R) 03 system (copyright 2003, Gaussian, Inc.),
 the Gaussian(R) 98 system (copyright 1998, Gaussian, Inc.),
 the Gaussian(R) 94 system (copyright 1995, Gaussian, Inc.),
 the Gaussian 92(TM) system (copyright 1992, Gaussian, Inc.),
 the Gaussian 90(TM) system (copyright 1990, Gaussian, Inc.),
 the Gaussian 88(TM) system (copyright 1988, Gaussian, Inc.),
 the Gaussian 86(TM) system (copyright 1986, Carnegie Mellon
 University), and the Gaussian 82(TM) system (copyright 1983,
 Carnegie Mellon University). Gaussian is a federally registered
 trademark of Gaussian, Inc.
  
 This software contains proprietary and confidential information,
 including trade secrets, belonging to Gaussian, Inc.
  
 This software is provided under written license and may be
 used, copied, transmitted, or stored only in accord with that
 written license.
  
 The following legend is applicable only to US Government
 contracts under FAR:
  
                    RESTRICTED RIGHTS LEGEND
  
 Use, reproduction and disclosure by the US Government is
 subject to restrictions as set forth in subparagraphs (a)
 and (c) of the Commercial Computer Software - Restricted
 Rights clause in FAR 52.227-19.
  
 Gaussian, Inc.
 340 Quinnipiac St., Bldg. 40, Wallingford CT 06492
  
  
 ---------------------------------------------------------------
 Warning -- This program may not be used in any manner that
 competes with the business of Gaussian, Inc. or will provide
 assistance to any competitor of Gaussian, Inc.  The licensee
 of this program is prohibited from giving any competitor of
 Gaussian, Inc. access to this program.  By using this program,
 the user acknowledges that Gaussian, Inc. is engaged in the
 business of creating and licensing software in the field of
 computational chemistry and represents and warrants to the
 licensee that it is not a competitor of Gaussian, Inc. and that
 it will not use this program in any manner prohibited above.
 ---------------------------------------------------------------
  

 Cite this work as:
 Gaussian 16, Revision A.03,
 M. J. Frisch, G. W. Trucks, H. B. Schlegel, G. E. Scuseria, 
 M. A. Robb, J. R. Cheeseman, G. Scalmani, V. Barone, 
 G. A. Petersson, H. Nakatsuji, X. Li, M. Caricato, A. V. Marenich, 
 J. Bloino, B. G. Janesko, R. Gomperts, B. Mennucci, H. P. Hratchian, 
 J. V. Ortiz, A. F. Izmaylov, J. L. Sonnenberg, D. Williams-Young, 
 F. Ding, F. Lipparini, F. Egidi, J. Goings, B. Peng, A. Petrone, 
 T. Henderson, D. Ranasinghe, V. G. Zakrzewski, J. Gao, N. Rega, 
 G. Zheng, W. Liang, M. Hada, M. Ehara, K. Toyota, R. Fukuda, 
 J. Hasegawa, M. Ishida, T. Nakajima, Y. Honda, O. Kitao, H. Nakai, 
 T. Vreven, K. Throssell, J. A. Montgomery, Jr., J. E. Peralta, 
 F. Ogliaro, M. J. Bearpark, J. J. Heyd, E. N. Brothers, K. N. Kudin, 
 V. N. Staroverov, T. A. Keith, R. Kobayashi, J. Normand, 
 K. Raghavachari, A. P. Rendell, J. C. Burant, S. S. Iyengar, 
 J. Tomasi, M. Cossi, J. M. Millam, M. Klene, C. Adamo, R. Cammi, 
 J. W. Ochterski, R. L. Martin, K. Morokuma, O. Farkas, 
 J. B. Foresman, and D. J. Fox, Gaussian, Inc., Wallingford CT, 2016.
 
 ******************************************
 Gaussian 16:  ES64L-G16RevA.03 25-Dec-2016
                17-Apr-2021 
 ******************************************
 %RWF=temp12_2629,70GB
 %nprocshared=48
 Will use up to   48 processors via shared memory.
 Default route: MaxDisk=80GB
 ----------------------------------------------------------------------
 #P M062X/GEN Integral=UltraFineGrid SCF=NoSymm Stable=(RExt, Opt) IOp(
 1/33=1)
 ----------------------------------------------------------------------
 1/33=1,38=1,172=1/1;
 2/12=2,17=6,18=5,40=1/2;
 3/5=7,11=2,25=1,30=1,74=-55,75=-5/1,2,3;
 4/9=2/1;
 5/5=2,38=5/2;
 6/7=2,8=2,9=2,10=2,28=1/1;
 8/6=1,10=90,11=11/1;
 9/8=-3,42=1,46=1/14;
 5/5=2,8=3,17=40,38=5/8(-2);
 6/7=2,8=2,9=2,10=2,28=1/1;
 99/5=1,9=1/99;
 Leave Link    1 at Sat Apr 17 10:17:51 2021, MaxMem=           0 cpu:               8.2 elap:               0.2
 (Enter /s/ls4/users/knvvv/bin/g16sse/l101.exe)
 ONIOM data not found on unit 2.
 ----------------------
 Database calculations.
 ----------------------
 TstMul:  ICh=     0
 TstMul:  Mul=     1
 TstMul:  ICh=     0
 TstMul:  Mul=     1
 Symbolic Z-matrix:
 Charge =  0 Multiplicity = 1
 C                     0.        0.87245   1.79361 
 C                    -0.75557  -0.43623   1.79361 
 H                    -1.32924  -0.76744   2.64687 
 C                     0.75557  -0.43623   1.79361 
 C                    -1.19969  -0.69264   0.35463 
 H                     0.        1.53487   2.64687 
 C                     1.19969  -0.69264   0.35463 
 H                     1.32924  -0.76744   2.64687 
 H                     0.        2.46879   0.25466 
 C                    -0.75557   0.43623  -1.79361 
 H                    -2.13803  -1.23439   0.25466 
 C                     1.19969   0.69264  -0.35463 
 C                     0.       -1.38528  -0.35463 
 C                     0.75557   0.43623  -1.79361 
 H                     2.13803  -1.23439   0.25466 
 C                     0.        1.38528   0.35463 
 C                    -1.19969   0.69264  -0.35463 
 C                     0.       -0.87245  -1.79361 
 H                    -2.13803   1.23439  -0.25466 
 H                     0.       -2.46879  -0.25466 
 H                     2.13803   1.23439  -0.25466 
 H                     0.       -1.53487  -2.64687 
 H                    -1.32924   0.76744  -2.64687 
 H                     1.32924   0.76744  -2.64687 
 
 RdStrC is calling ZToCFu for IStruc=1 NZ=    24.
 PrtBox:  NBox=     4 Levels=  1 BoxLen=    8.00 SMaxX=       10.00
          Shift=            4.040297            4.665333            5.001852
 Box      1 Number                   0 centers from      1 to     15:
 Box      2 Number                   1 centers from     16 to     21:
 Box      3 Number                   2 centers from     22 to     22:
 Box      4 Number                   4 centers from     23 to     24:
 After GenITR:
 ITRead=  0  0  0  0  0  0  0  0  0  0  0  0  0  0  0  0  0  0  0  0
 ITRead=  0  0  0  0
 MicOpt= -1 -1 -1 -1 -1 -1 -1 -1 -1 -1 -1 -1 -1 -1 -1 -1 -1 -1 -1 -1
 MicOpt= -1 -1 -1 -1
 ITRead=  0  0  0  0  0  0  0  0  0  0  0  0  0  0  0  0  0  0  0  0
 ITRead=  0  0  0  0
 MicOpt= -1 -1 -1 -1 -1 -1 -1 -1 -1 -1 -1 -1 -1 -1 -1 -1 -1 -1 -1 -1
 MicOpt= -1 -1 -1 -1
 NAtoms=     24 NQM=       24 NQMF=       0 NMMI=      0 NMMIF=      0
                NMic=       0 NMicF=      0.
                    Isotopes and Nuclear Properties:
 (Nuclear quadrupole moments (NQMom) in fm**2, nuclear magnetic moments (NMagM)
  in nuclear magnetons)

  Atom         1           2           3           4           5           6           7           8           9          10
 IAtWgt=          12          12           1          12          12           1          12           1           1          12
 AtmWgt=  12.0000000  12.0000000   1.0078250  12.0000000  12.0000000   1.0078250  12.0000000   1.0078250   1.0078250  12.0000000
 NucSpn=           0           0           1           0           0           1           0           1           1           0
 AtZEff=  -0.0000000  -0.0000000  -0.0000000  -0.0000000  -0.0000000  -0.0000000  -0.0000000  -0.0000000  -0.0000000  -0.0000000
 NQMom=    0.0000000   0.0000000   0.0000000   0.0000000   0.0000000   0.0000000   0.0000000   0.0000000   0.0000000   0.0000000
 NMagM=    0.0000000   0.0000000   2.7928460   0.0000000   0.0000000   2.7928460   0.0000000   2.7928460   2.7928460   0.0000000
 AtZNuc=   6.0000000   6.0000000   1.0000000   6.0000000   6.0000000   1.0000000   6.0000000   1.0000000   1.0000000   6.0000000

  Atom        11          12          13          14          15          16          17          18          19          20
 IAtWgt=           1          12          12          12           1          12          12          12           1           1
 AtmWgt=   1.0078250  12.0000000  12.0000000  12.0000000   1.0078250  12.0000000  12.0000000  12.0000000   1.0078250   1.0078250
 NucSpn=           1           0           0           0           1           0           0           0           1           1
 AtZEff=  -0.0000000  -0.0000000  -0.0000000  -0.0000000  -0.0000000  -0.0000000  -0.0000000  -0.0000000  -0.0000000  -0.0000000
 NQMom=    0.0000000   0.0000000   0.0000000   0.0000000   0.0000000   0.0000000   0.0000000   0.0000000   0.0000000   0.0000000
 NMagM=    2.7928460   0.0000000   0.0000000   0.0000000   2.7928460   0.0000000   0.0000000   0.0000000   2.7928460   2.7928460
 AtZNuc=   1.0000000   6.0000000   6.0000000   6.0000000   1.0000000   6.0000000   6.0000000   6.0000000   1.0000000   1.0000000

  Atom        21          22          23          24
 IAtWgt=           1           1           1           1
 AtmWgt=   1.0078250   1.0078250   1.0078250   1.0078250
 NucSpn=           1           1           1           1
 AtZEff=  -0.0000000  -0.0000000  -0.0000000  -0.0000000
 NQMom=    0.0000000   0.0000000   0.0000000   0.0000000
 NMagM=    2.7928460   2.7928460   2.7928460   2.7928460
 AtZNuc=   1.0000000   1.0000000   1.0000000   1.0000000
 No MM parameters found.
 Leave Link  101 at Sat Apr 17 10:17:52 2021, MaxMem=   104857600 cpu:              10.6 elap:               0.2
 (Enter /s/ls4/users/knvvv/bin/g16sse/l202.exe)
                          Input orientation:                          
 ---------------------------------------------------------------------
 Center     Atomic      Atomic             Coordinates (Angstroms)
 Number     Number       Type             X           Y           Z
 ---------------------------------------------------------------------
      1          6           0        0.000000    0.872451    1.793608
      2          6           0       -0.755565   -0.436226    1.793608
      3          1           0       -1.329240   -0.767437    2.646866
      4          6           0        0.755565   -0.436226    1.793608
      5          6           0       -1.199689   -0.692641    0.354632
      6          1           0        0.000000    1.534874    2.646866
      7          6           0        1.199689   -0.692641    0.354632
      8          1           0        1.329240   -0.767437    2.646866
      9          1           0        0.000000    2.468788    0.254662
     10          6           0       -0.755565    0.436226   -1.793608
     11          1           0       -2.138033   -1.234394    0.254662
     12          6           0        1.199689    0.692641   -0.354632
     13          6           0        0.000000   -1.385282   -0.354632
     14          6           0        0.755565    0.436226   -1.793608
     15          1           0        2.138033   -1.234394    0.254662
     16          6           0        0.000000    1.385282    0.354632
     17          6           0       -1.199689    0.692641   -0.354632
     18          6           0        0.000000   -0.872451   -1.793608
     19          1           0       -2.138033    1.234394   -0.254662
     20          1           0        0.000000   -2.468788   -0.254662
     21          1           0        2.138033    1.234394   -0.254662
     22          1           0        0.000000   -1.534874   -2.646866
     23          1           0       -1.329240    0.767437   -2.646866
     24          1           0        1.329240    0.767437   -2.646866
 ---------------------------------------------------------------------
                    Distance matrix (angstroms):
                    1          2          3          4          5
     1  C    0.000000
     2  C    1.511130   0.000000
     3  H    2.276875   1.080210   0.000000
     4  C    1.511130   1.511130   2.276875   0.000000
     5  C    2.441192   1.527628   2.297110   2.441192   0.000000
     6  H    1.080210   2.276876   2.658480   2.276876   3.414003
     7  C    2.441192   2.441192   3.414002   1.527628   2.399378
     8  H    2.276875   2.276875   2.658480   1.080210   3.414002
     9  H    2.217351   3.373179   4.238239   3.373179   3.382881
    10  C    3.691787   3.691787   4.636347   3.989086   2.467088
    11  H    3.373179   2.217351   2.568041   3.373179   1.088108
    12  C    2.467087   3.116455   4.187637   2.467088   2.859908
    13  C    3.116455   2.467088   3.340300   2.467088   1.556297
    14  C    3.691787   3.989086   5.051042   3.691787   3.116455
    15  H    3.373179   3.373179   4.238239   2.217351   3.382880
    16  C    1.527628   2.441193   3.414003   2.441193   2.399379
    17  C    2.467087   2.467088   3.340300   3.116455   1.556297
    18  C    3.989085   3.691787   4.636347   3.691787   2.467087
    19  H    2.982884   2.982884   3.616675   3.919093   2.228271
    20  H    3.919093   2.982884   3.616675   2.982884   2.228271
    21  H    2.982884   3.919093   4.944509   2.982884   3.901934
    22  H    5.051042   4.636347   5.511754   4.636347   3.340299
    23  H    4.636347   4.636347   5.511754   5.051042   3.340300
    24  H    4.636347   5.051042   6.119392   4.636347   4.187637
                    6          7          8          9         10
     6  H    0.000000
     7  C    3.414003   0.000000
     8  H    2.658480   2.297110   0.000000
     9  H    2.568041   3.382881   4.238239   0.000000
    10  C    4.636347   3.116455   5.051042   2.982884   0.000000
    11  H    4.238239   3.382880   4.238239   4.276066   2.982884
    12  C    3.340299   1.556297   3.340300   2.228271   2.441192
    13  C    4.187637   1.556297   3.340300   3.901935   2.441193
    14  C    4.636347   2.467088   4.636347   2.982884   1.511130
    15  H    4.238239   1.088108   2.568041   4.276066   3.919093
    16  C    2.297110   2.399379   3.414003   1.088108   2.467088
    17  C    3.340299   2.859908   4.187637   2.228271   1.527628
    18  C    5.051042   2.467087   4.636347   3.919093   1.511130
    19  H    3.616675   3.901934   4.944509   2.520779   2.217351
    20  H    4.944509   2.228271   3.616675   4.963776   3.373179
    21  H    3.616675   2.228271   3.616675   2.520779   3.373179
    22  H    6.119391   3.340299   5.511754   4.944509   2.276876
    23  H    5.511754   4.187637   6.119392   3.616675   1.080210
    24  H    5.511754   3.340300   5.511754   3.616675   2.276875
                   11         12         13         14         15
    11  H    0.000000
    12  C    3.901934   0.000000
    13  C    2.228271   2.399379   0.000000
    14  C    3.919093   1.527628   2.441193   0.000000
    15  H    4.276066   2.228271   2.228271   2.982884   0.000000
    16  C    3.382881   1.556297   2.859909   2.467088   3.382881
    17  C    2.228271   2.399378   2.399379   2.441192   3.901934
    18  C    2.982884   2.441192   1.527628   1.511130   2.982884
    19  H    2.520779   3.382880   3.382881   3.373179   4.963775
    20  H    2.520779   3.382881   1.088108   3.373179   2.520779
    21  H    4.963775   1.088108   3.382881   2.217351   2.520779
    22  H    3.616675   3.414003   2.297110   2.276876   3.616675
    23  H    3.616675   3.414002   3.414003   2.276875   4.944509
    24  H    4.944509   2.297110   3.414003   1.080210   3.616675
                   16         17         18         19         20
    16  C    0.000000
    17  C    1.556297   0.000000
    18  C    3.116455   2.441192   0.000000
    19  H    2.228271   1.088108   3.373179   0.000000
    20  H    3.901935   3.382881   2.217351   4.276066   0.000000
    21  H    2.228271   3.382880   3.373179   4.276066   4.276066
    22  H    4.187637   3.414003   1.080210   4.238239   2.568041
    23  H    3.340300   2.297110   2.276875   2.568041   4.238239
    24  H    3.340300   3.414002   2.276875   4.238239   4.238239
                   21         22         23         24
    21  H    0.000000
    22  H    4.238239   0.000000
    23  H    4.238239   2.658480   0.000000
    24  H    2.568041   2.658480   2.658480   0.000000
 Stoichiometry    C12H12
 Framework group  D3D[3SGD(C4H4)]
 Deg. of freedom     8
 Full point group                 D3D     NOp  12
 Largest Abelian subgroup         C2H     NOp   4
 Largest concise Abelian subgroup C2H     NOp   4
                         Standard orientation:                         
 ---------------------------------------------------------------------
 Center     Atomic      Atomic             Coordinates (Angstroms)
 Number     Number       Type             X           Y           Z
 ---------------------------------------------------------------------
      1          6           0        0.000000    0.872451    1.793608
      2          6           0       -0.755565   -0.436225    1.793608
      3          1           0       -1.329240   -0.767437    2.646866
      4          6           0        0.755565   -0.436226    1.793608
      5          6           0       -1.199689   -0.692641    0.354632
      6          1           0        0.000000    1.534874    2.646866
      7          6           0        1.199689   -0.692641    0.354632
      8          1           0        1.329240   -0.767437    2.646866
      9          1           0        0.000000    2.468788    0.254662
     10          6           0       -0.755565    0.436225   -1.793608
     11          1           0       -2.138033   -1.234394    0.254662
     12          6           0        1.199689    0.692641   -0.354632
     13          6           0       -0.000000   -1.385282   -0.354632
     14          6           0        0.755565    0.436225   -1.793608
     15          1           0        2.138033   -1.234394    0.254662
     16          6           0        0.000000    1.385282    0.354632
     17          6           0       -1.199689    0.692641   -0.354632
     18          6           0       -0.000000   -0.872451   -1.793608
     19          1           0       -2.138033    1.234394   -0.254662
     20          1           0       -0.000000   -2.468788   -0.254662
     21          1           0        2.138033    1.234394   -0.254662
     22          1           0       -0.000000   -1.534874   -2.646866
     23          1           0       -1.329240    0.767437   -2.646866
     24          1           0        1.329240    0.767437   -2.646866
 ---------------------------------------------------------------------
 Rotational constants (GHZ):           2.0705979           1.2463888           1.2463888
 Leave Link  202 at Sat Apr 17 10:17:52 2021, MaxMem=   104857600 cpu:              17.4 elap:               0.4
 (Enter /s/ls4/users/knvvv/bin/g16sse/l301.exe)
 General basis read from cards:  (5D, 7F)
 Centers:       3      6      8      9     11     15     19     20     21     22
 Centers:      23     24
 S 4 1.00
     Exponent=  1.9069169000D+02 Coefficients=  7.0815167000D-04
     Exponent=  2.8605532000D+01 Coefficients=  5.4678827000D-03
     Exponent=  6.5095943000D+00 Coefficients=  2.7966605000D-02
     Exponent=  1.8412455000D+00 Coefficients=  1.0764538000D-01
 S 1 1.00
     Exponent=  5.9853725000D-01 Coefficients=  1.0000000000D+00
 S 1 1.00
     Exponent=  2.1397624000D-01 Coefficients=  1.0000000000D+00
 S 1 1.00
     Exponent=  8.0316286000D-02 Coefficients=  1.0000000000D+00
 P 1 1.00
     Exponent=  2.2920000000D+00 Coefficients=  1.0000000000D+00
 P 1 1.00
     Exponent=  8.3800000000D-01 Coefficients=  1.0000000000D+00
 P 1 1.00
     Exponent=  2.9200000000D-01 Coefficients=  1.0000000000D+00
 P 1 1.00
     Exponent=  8.4063199228D-02 Coefficients=  1.0000000000D+00
 D 1 1.00
     Exponent=  2.0620000000D+00 Coefficients=  1.0000000000D+00
 D 1 1.00
     Exponent=  6.6200000000D-01 Coefficients=  1.0000000000D+00
 F 1 1.00
     Exponent=  1.3970000000D+00 Coefficients=  1.0000000000D+00
 ****
 Centers:       1      2      4      5      7     10     12     13     14     16
 Centers:      17     18
 S 8 1.00
     Exponent=  6.7025071029D+04 Coefficients=  3.8736308501D-05
     Exponent=  1.0039986538D+04 Coefficients=  3.0107917575D-04
     Exponent=  2.2849316911D+03 Coefficients=  1.5787918095D-03
     Exponent=  6.4714122130D+02 Coefficients=  6.6087087195D-03
     Exponent=  2.1109472335D+02 Coefficients=  2.3367123250D-02
     Exponent=  7.6177643862D+01 Coefficients=  7.0420716898D-02
     Exponent=  2.9633839163D+01 Coefficients=  1.7360344953D-01
     Exponent=  1.2187785081D+01 Coefficients=  3.2292305648D-01
 S 2 1.00
     Exponent=  5.3026006299D+01 Coefficients=  7.4897404492D-02
     Exponent=  1.5258502776D+01 Coefficients=  7.6136220983D-01
 S 1 1.00
     Exponent=  5.2403957464D+00 Coefficients=  1.0000000000D+00
 S 1 1.00
     Exponent=  2.2905022379D+00 Coefficients=  1.0000000000D+00
 S 1 1.00
     Exponent=  6.9673283006D-01 Coefficients=  1.0000000000D+00
 S 1 1.00
     Exponent=  2.7599337363D-01 Coefficients=  1.0000000000D+00
 S 1 1.00
     Exponent=  1.0739884389D-01 Coefficients=  1.0000000000D+00
 S 1 1.00
     Exponent=  4.4981404899D-02 Coefficients=  1.0000000000D+00
 P 5 1.00
     Exponent=  1.0512555082D+02 Coefficients=  8.4647553844D-04
     Exponent=  2.4884461066D+01 Coefficients=  6.6274038534D-03
     Exponent=  7.8637230826D+00 Coefficients=  3.0120390419D-02
     Exponent=  2.8407001835D+00 Coefficients=  9.9951435476D-02
     Exponent=  1.1227137335D+00 Coefficients=  2.3826299282D-01
 P 1 1.00
     Exponent=  4.6050725555D-01 Coefficients=  1.0000000000D+00
 P 1 1.00
     Exponent=  1.8937530913D-01 Coefficients=  1.0000000000D+00
 P 1 1.00
     Exponent=  7.5983791611D-02 Coefficients=  1.0000000000D+00
 D 1 1.00
     Exponent=  1.8480000000D+00 Coefficients=  1.0000000000D+00
 D 1 1.00
     Exponent=  6.4900000000D-01 Coefficients=  1.0000000000D+00
 D 1 1.00
     Exponent=  2.2800000000D-01 Coefficients=  1.0000000000D+00
 D 1 1.00
     Exponent=  7.6889830417D-02 Coefficients=  1.0000000000D+00
 F 1 1.00
     Exponent=  1.4190000000D+00 Coefficients=  1.0000000000D+00
 F 1 1.00
     Exponent=  4.8500000000D-01 Coefficients=  1.0000000000D+00
 G 1 1.00
     Exponent=  1.0110000000D+00 Coefficients=  1.0000000000D+00
 ****
 Ernie: Thresh=  0.10000D-02 Tol=  0.10000D-05 Strict=F.
 There are   392 symmetry adapted cartesian basis functions of AG  symmetry.
 There are   310 symmetry adapted cartesian basis functions of BG  symmetry.
 There are   310 symmetry adapted cartesian basis functions of AU  symmetry.
 There are   392 symmetry adapted cartesian basis functions of BU  symmetry.
 There are   318 symmetry adapted basis functions of AG  symmetry.
 There are   258 symmetry adapted basis functions of BG  symmetry.
 There are   258 symmetry adapted basis functions of AU  symmetry.
 There are   318 symmetry adapted basis functions of BU  symmetry.
  1152 basis functions,  1680 primitive gaussians,  1404 cartesian basis functions
    42 alpha electrons       42 beta electrons
       nuclear repulsion energy       739.3267186933 Hartrees.
 IExCor= 4336 DFT=T Ex+Corr=M062X ExCW=0 ScaHFX=  0.540000
 ScaDFX=  1.000000  1.000000  1.000000  1.000000 ScalE2=  1.000000  1.000000
 IRadAn=      5 IRanWt=     -1 IRanGd=            0 ICorTp=0 IEmpDi=  4
 NAtoms=   24 NActive=   24 NUniq=    4 SFac= 4.00D+00 NAtFMM=   60 NAOKFM=F Big=F
 Integral buffers will be    131072 words long.
 Raffenetti 2 integral format.
 Two-electron integral symmetry is turned on.
 Leave Link  301 at Sat Apr 17 10:17:52 2021, MaxMem=   104857600 cpu:               9.8 elap:               0.2
 (Enter /s/ls4/users/knvvv/bin/g16sse/l302.exe)
 NPDir=0 NMtPBC=     1 NCelOv=     1 NCel=       1 NClECP=     1 NCelD=      1
         NCelK=      1 NCelE2=     1 NClLst=     1 CellRange=     0.0.
 One-electron integrals computed using PRISM.
 One-electron integral symmetry used in STVInt
 PrsmSu:  requested number of processors reduced to:   3 ShMem   1 Linda.
 PrsmSu:  requested number of processors reduced to:  15 ShMem   1 Linda.
 NBasis=  1152 RedAO= T EigKep=  1.17D-06  NBF=   318   258   258   318
 NBsUse=  1132 1.00D-06 EigRej=  5.72D-07 NBFU=   313   254   254   311
 Precomputing XC quadrature grid using
 IXCGrd= 4 IRadAn=           5 IRanWt=          -1 IRanGd=           0 AccXCQ= 0.00D+00.
 Generated NRdTot=       0 NPtTot=           0 NUsed=           0 NTot=          32
 NSgBfM=  1401  1401  1401  1401  1401 MxSgAt=    24 MxSgA2=    24.
 Leave Link  302 at Sat Apr 17 10:20:10 2021, MaxMem=   104857600 cpu:            6449.6 elap:             137.3
 (Enter /s/ls4/users/knvvv/bin/g16sse/l303.exe)
 DipDrv:  MaxL=1.
 Leave Link  303 at Sat Apr 17 10:20:29 2021, MaxMem=   104857600 cpu:             903.6 elap:              19.3
 (Enter /s/ls4/users/knvvv/bin/g16sse/l401.exe)
 SCF N**3 symmetry information disabled.
 ExpMin= 4.50D-02 ExpMax= 6.70D+04 ExpMxC= 6.47D+02 IAcc=3 IRadAn=         5 AccDes= 0.00D+00
 Harris functional with IExCor= 1009 and IRadAn=       5 diagonalized for initial guess.
 HarFok:  IExCor= 1009 AccDes= 0.00D+00 IRadAn=         5 IDoV= 1 UseB2=F ITyADJ=14
 ICtDFT=  3500011 ScaDFX=  1.000000  1.000000  1.000000  1.000000
 CalDSu:  requested number of processors reduced to:  31 ShMem   1 Linda.
 FoFCou: FMM=F IPFlag=           0 FMFlag=      100000 FMFlg1=           0
         NFxFlg=           0 DoJE=T BraDBF=F KetDBF=T FulRan=T
         wScrn=  0.000000 ICntrl=       500 IOpCl=  0 I1Cent=   200000004 NGrid=           0
         NMat0=    1 NMatS0=      1 NMatT0=    0 NMatD0=    1 NMtDS0=    0 NMtDT0=    0
 Petite list used in FoFCou.
 CoulSu:  requested number of processors reduced to:  11 ShMem   1 Linda.
 CoulSu:  requested number of processors reduced to:  12 ShMem   1 Linda.
 CoulSu:  requested number of processors reduced to:  20 ShMem   1 Linda.
 CoulSu:  requested number of processors reduced to:  20 ShMem   1 Linda.
 Harris En= -464.239636412234    
 JPrj=0 DoOrth=F DoCkMO=F.
 Initial guess orbital symmetries:
       Occupied  (A2U) (A1G) (EU) (EU) (EG) (EG) (A1G) (EU) (EU)
                 (EG) (EG) (A2U) (A1G) (A2U) (A1G) (EU) (EU) (EG)
                 (EG) (A2U) (EG) (EG) (A1G) (EU) (EU) (A2U) (A1G)
                 (EU) (EU) (A2U) (EG) (EG) (A1G) (A1U) (EU) (EU)
                 (EG) (EG) (EU) (EU) (EG) (EG)
       Virtual   (A2G) (A1G) (A2U) (A2U) (EU) (EU) (EG) (EG) (A1U)
                 (A1G) (EU) (EU) (EG) (EG) (A2U) (A1G) (EU) (EU)
                 (A2U) (EG) (EG) (A1G) (EU) (EU) (A1U) (EG) (EG)
                 (A1G) (EG) (EG) (A2U) (EG) (EG) (EU) (EU) (A1G)
                 (EU) (EU) (A2U) (EG) (EG) (EG) (EG) (A2G) (EU)
                 (EU) (A2G) (A1G) (A2U) (A2U) (EU) (EU) (EG) (EG)
                 (A1G) (EU) (EU) (A1U) (A2U) (EU) (EU) (EG) (EG)
                 (EU) (EU) (EU) (EU) (EG) (EG) (A1G) (EU) (EU)
                 (A1G) (A2U) (EG) (EG) (EG) (EG) (A1U) (A2U) (EG)
                 (EG) (A2G) (A2U) (A1G) (EU) (EU) (EG) (EG) (A2G)
                 (EG) (EG) (A1G) (EU) (EU) (EU) (EU) (EG) (EG)
                 (A1G) (A1U) (EG) (EG) (A2U) (EU) (EU) (A1G) (EU)
                 (EU) (A2G) (A2U) (EU) (EU) (EG) (EG) (EU) (EU)
                 (A2U) (EU) (EU) (A1U) (A1G) (EG) (EG) (A2U) (EU)
                 (EU) (A2U) (EG) (EG) (A1G) (EU) (EU) (A1G) (EG)
                 (EG) (EU) (EU) (EG) (EG) (A1U) (A2G) (A1G) (A2G)
                 (EU) (EU) (EG) (EG) (EG) (EG) (A2U) (A2G) (EG)
                 (EG) (A1G) (A2U) (EU) (EU) (A1U) (EG) (EG) (A1G)
                 (EG) (EG) (A2U) (EU) (EU) (A1U) (A2U) (EG) (EG)
                 (EU) (EU) (A1G) (EG) (EG) (EU) (EU) (EU) (EU)
                 (A2U) (A1G) (A2G) (A1G) (EG) (EG) (A1U) (EU) (EU)
                 (EG) (EG) (EU) (EU) (A1G) (A2U) (EG) (EG) (A2U)
                 (EU) (EU) (EG) (EG) (A2G) (A1U) (EU) (EU) (A1G)
                 (A2U) (EU) (EU) (EG) (EG) (A1G) (EU) (EU) (A2G)
                 (EG) (EG) (EG) (EG) (A2U) (EU) (EU) (A1U) (EU)
                 (EU) (EG) (EG) (A2U) (EU) (EU) (EG) (EG) (A2U)
                 (A1G) (A1U) (EG) (EG) (A1G) (EG) (EG) (A2G) (A1G)
                 (EU) (EU) (EG) (EG) (A2U) (EU) (EU) (A1G) (EU)
                 (EU) (A2U) (A1U) (EG) (EG) (A2G) (EG) (EG) (A2U)
                 (EU) (EU) (A2U) (EU) (EU) (EG) (EG) (A2G) (A1U)
                 (A1G) (EU) (EU) (A1G) (EU) (EU) (A1G) (EG) (EG)
                 (A1U) (EG) (EG) (A2U) (A2G) (EU) (EU) (EU) (EU)
                 (EG) (EG) (A1G) (EG) (EG) (EU) (EU) (A2U) (A1G)
                 (A2U) (EU) (EU) (EG) (EG) (A1G) (EG) (EG) (EU)
                 (EU) (EG) (EG) (A1U) (A2U) (A1G) (EU) (EU) (EU)
                 (EU) (A2U) (EG) (EG) (A2G) (EG) (EG) (EG) (EG)
                 (A1G) (A2U) (EU) (EU) (EG) (EG) (A1U) (EG) (EG)
                 (EU) (EU) (A2U) (A1G) (EU) (EU) (A2U) (EU) (EU)
                 (A1U) (A1G) (EU) (EU) (A2G) (EG) (EG) (A2G) (A2U)
                 (EG) (EG) (A1G) (EG) (EG) (EU) (EU) (A2U) (A1U)
                 (EG) (EG) (A2U) (EU) (EU) (A2G) (EU) (EU) (EG)
                 (EG) (A1G) (A1G) (EG) (EG) (A1G) (EG) (EG) (A1U)
                 (EU) (EU) (EU) (EU) (A2G) (A2U) (EG) (EG) (A1U)
                 (EU) (EU) (A1U) (A1G) (EU) (EU) (A2U) (EG) (EG)
                 (A2U) (A2G) (A1G) (EG) (EG) (EU) (EU) (A2G) (A2U)
                 (EG) (EG) (EU) (EU) (A1G) (EU) (EU) (A2G) (EG)
                 (EG) (A1G) (EU) (EU) (EG) (EG) (A1U) (EU) (EU)
                 (EG) (EG) (A1U) (A2U) (EG) (EG) (A2U) (EU) (EU)
                 (A2G) (A1G) (EU) (EU) (A1G) (EU) (EU) (EG) (EG)
                 (A2U) (EG) (EG) (EU) (EU) (A1U) (EG) (EG) (EU)
                 (EU) (EG) (EG) (EG) (EG) (A1G) (EU) (EU) (A2U)
                 (A1G) (A2G) (A2U) (A1G) (EG) (EG) (EG) (EG) (EU)
                 (EU) (A2U) (A2G) (EU) (EU) (A1G) (EU) (EU) (A2U)
                 (EG) (EG) (A1G) (EG) (EG) (A1U) (EU) (EU) (EU)
                 (EU) (A1G) (A2U) (EG) (EG) (EG) (EG) (EU) (EU)
                 (EG) (EG) (EU) (EU) (A1U) (A2G) (A1U) (A1G) (A2U)
                 (EG) (EG) (EU) (EU) (EU) (EU) (EG) (EG) (A1G)
                 (A2U) (A1U) (A2G) (A2U) (EU) (EU) (A1G) (EG) (EG)
                 (EU) (EU) (A2G) (EG) (EG) (A1G) (EU) (EU) (A1U)
                 (EG) (EG) (A1G) (EU) (EU) (EG) (EG) (A2U) (EU)
                 (EU) (A2G) (EG) (EG) (A2U) (A1U) (A2U) (EG) (EG)
                 (EU) (EU) (EG) (EG) (A1G) (EG) (EG) (EU) (EU)
                 (A1U) (A2G) (A2U) (EG) (EG) (EU) (EU) (A2U) (A2G)
                 (EU) (EU) (A1G) (EU) (EU) (A1G) (EG) (EG) (A1U)
                 (EU) (EU) (A2U) (EG) (EG) (EG) (EG) (EU) (EU)
                 (A2G) (A1G) (A2U) (A1U) (EG) (EG) (A2G) (EU) (EU)
                 (A1G) (EU) (EU) (A2U) (A2U) (EG) (EG) (EG) (EG)
                 (EU) (EU) (A1G) (EG) (EG) (A1G) (EU) (EU) (EU)
                 (EU) (A1U) (EG) (EG) (A2U) (A2G) (A1G) (EG) (EG)
                 (EU) (EU) (A2U) (EG) (EG) (EU) (EU) (A1G) (A1U)
                 (EG) (EG) (EU) (EU) (A2U) (EG) (EG) (A1G) (A2G)
                 (EG) (EG) (EU) (EU) (A2U) (EU) (EU) (EU) (EU)
                 (A2U) (A1U) (EG) (EG) (A1G) (A2U) (EU) (EU) (A1G)
                 (EU) (EU) (A2U) (EG) (EG) (A1G) (EG) (EG) (A1U)
                 (A1G) (EG) (EG) (EU) (EU) (A2U) (A2G) (EG) (EG)
                 (A2U) (A1G) (EG) (EG) (EU) (EU) (A1U) (EU) (EU)
                 (EG) (EG) (A1U) (A2G) (A1G) (EU) (EU) (A2U) (EG)
                 (EG) (EU) (EU) (A2U) (A1G) (A2G) (EG) (EG) (EU)
                 (EU) (A2U) (EU) (EU) (A1U) (EG) (EG) (EG) (EG)
                 (A2G) (EU) (EU) (EG) (EG) (A1G) (A2U) (EU) (EU)
                 (EU) (EU) (A2G) (EG) (EG) (A1U) (A2G) (EU) (EU)
                 (EG) (EG) (A1G) (A1G) (A1U) (EG) (EG) (EU) (EU)
                 (A1G) (EG) (EG) (A1U) (A2G) (A2G) (EU) (EU) (A2U)
                 (A1G) (EU) (EU) (EG) (EG) (EU) (EU) (EG) (EG)
                 (EU) (EU) (A2U) (EG) (EG) (A2G) (EG) (EG) (EU)
                 (EU) (A1U) (A2U) (EU) (EU) (EG) (EG) (A1G) (A1U)
                 (A2G) (EU) (EU) (A2U) (EG) (EG) (EG) (EG) (EU)
                 (EU) (A1U) (EU) (EU) (A2U) (EG) (EG) (A1U) (EG)
                 (EG) (A1G) (A2G) (A2U) (EG) (EG) (EU) (EU) (EU)
                 (EU) (A1G) (A1U) (EU) (EU) (A2G) (A1G) (EG) (EG)
                 (A2U) (EG) (EG) (A1G) (EU) (EU) (EG) (EG) (EU)
                 (EU) (A1G) (A2U) (A2G) (EG) (EG) (A2U) (A1G) (EU)
                 (EU) (EG) (EG) (EU) (EU) (A1U) (A2G) (A1G) (EG)
                 (EG) (EU) (EU) (EU) (EU) (A2U) (A1U) (EG) (EG)
                 (A2U) (A1G) (EG) (EG) (EU) (EU) (A1G) (A2U) (EU)
                 (EU) (EG) (EG) (A2U) (EU) (EU) (A1G) (A2G) (A1U)
                 (EG) (EG) (A2U) (EU) (EU) (EG) (EG) (EU) (EU)
                 (EG) (EG) (EG) (EG) (A2G) (EG) (EG) (EU) (EU)
                 (A1U) (A1G) (A2U) (EG) (EG) (EU) (EU) (A1U) (EU)
                 (EU) (EG) (EG) (A1G) (EU) (EU) (A2G) (EG) (EG)
                 (EG) (EG) (A2G) (A1G) (EU) (EU) (A1U) (A2U) (EU)
                 (EU) (A1G) (EU) (EU) (A2U) (EG) (EG) (A1G) (EU)
                 (EU) (A2G) (EG) (EG) (A2U) (EG) (EG) (A1U) (EU)
                 (EU) (A1G) (A2U) (A2G) (EU) (EU) (A1U) (EG) (EG)
                 (EU) (EU) (A2U) (EG) (EG) (EU) (EU) (EG) (EG)
                 (A2U) (A1G) (EG) (EG) (A1U) (EG) (EG) (EU) (EU)
                 (A2G) (EU) (EU) (A1G) (A2U) (EU) (EU) (EG) (EG)
                 (EU) (EU) (A2G) (EG) (EG) (A1U) (A1G) (EU) (EU)
                 (A2G) (EU) (EU) (EG) (EG) (A1G) (A2U) (EG) (EG)
                 (A1U) (EU) (EU) (EU) (EU) (A1G) (A2U) (EG) (EG)
                 (EG) (EG) (A2G) (EU) (EU) (A2G) (EG) (EG) (A1U)
                 (A2U) (EU) (EU) (A2G) (A1U) (EG) (EG) (A2U) (A1G)
                 (EG) (EG) (A2U) (EU) (EU) (EG) (EG) (A1G) (EU)
                 (EU) (EG) (EG) (EU) (EU) (A1G) (A1U) (A2U) (EG)
                 (EG) (EU) (EU) (A2G) (A1G) (EG) (EG) (A2U) (EU)
                 (EU) (A2U) (A1G) (EG) (EG) (A1G) (EU) (EU) (EG)
                 (EG) (A2G) (A1U) (EU) (EU) (A2U) (EU) (EU) (EG)
                 (EG) (A2U) (EG) (EG) (A1G) (EU) (EU) (A2U) (A1G)
                 (EU) (EU) (EG) (EG) (A1G) (EU) (EU) (EG) (EG)
                 (A2U) (A1G) (A2U) (EU) (EU) (EG) (EG) (A1G) (EU)
                 (EU) (EG) (EG) (A2U) (A1G) (A2U) (EU) (EU) (EG)
                 (EG)
 The electronic state of the initial guess is 1-A1G.
 Leave Link  401 at Sat Apr 17 10:21:23 2021, MaxMem=   104857600 cpu:            2484.3 elap:              53.9
 (Enter /s/ls4/users/knvvv/bin/g16sse/l502.exe)
 Integral symmetry usage will be decided dynamically.
 Closed shell SCF:
 Using DIIS extrapolation, IDIIS=  1040.
 NGot=   104857600 LenX=   100825296 LenY=    98852676
 Requested convergence on RMS density matrix=1.00D-08 within 128 cycles.
 Requested convergence on MAX density matrix=1.00D-06.
 Requested convergence on             energy=1.00D-06.
 No special actions if energy rises.
 Fock matrices will be formed incrementally for  20 cycles.

 Cycle   1  Pass 1  IDiag  1:
 FoFJK:  IHMeth= 1 ICntrl=       0 DoSepK=F KAlg= 0 I1Cent=           0 FoldK=F
 IRaf= 930000000 NMat=       1 IRICut=       1 DoRegI=T DoRafI=F ISym2E= 1 IDoP0=0 IntGTp=1.
 FoFCou: FMM=F IPFlag=           0 FMFlag=      100000 FMFlg1=           0
         NFxFlg=           0 DoJE=F BraDBF=F KetDBF=F FulRan=T
         wScrn=  0.000000 ICntrl=         0 IOpCl=  0 I1Cent=           0 NGrid=           0
         NMat0=    1 NMatS0=      1 NMatT0=    0 NMatD0=    1 NMtDS0=    0 NMtDT0=    0
 Petite list used in FoFCou.
 CoulSu:  requested number of processors reduced to:  14 ShMem   1 Linda.
 CalDSu:  requested number of processors reduced to:  31 ShMem   1 Linda.
 E= -464.141576719081    
 DIIS: error= 2.46D-02 at cycle   1 NSaved=   1.
 NSaved= 1 IEnMin= 1 EnMin= -464.141576719081     IErMin= 1 ErrMin= 2.46D-02
 ErrMax= 2.46D-02  0.00D+00 EMaxC= 1.00D-01 BMatC= 5.20D-01 BMatP= 5.20D-01
 IDIUse=3 WtCom= 7.54D-01 WtEn= 2.46D-01
 Coeff-Com:  0.100D+01
 Coeff-En:   0.100D+01
 Coeff:      0.100D+01
 Gap=     0.409 Goal=   None    Shift=    0.000
 GapD=    0.409 DampG=2.000 DampE=0.500 DampFc=1.0000 IDamp=-1.
 RMSDP=3.98D-03 MaxDP=3.05D-01              OVMax= 1.49D-01

 Cycle   2  Pass 1  IDiag  1:
 RMSU=  2.63D-03    CP:  4.53D-01
 CoulSu:  requested number of processors reduced to:  14 ShMem   1 Linda.
 CalDSu:  requested number of processors reduced to:  31 ShMem   1 Linda.
 E= -464.089483255457     Delta-E=        0.052093463624 Rises=F Damp=F
 DIIS: error= 4.50D-02 at cycle   2 NSaved=   2.
 NSaved= 2 IEnMin= 1 EnMin= -464.141576719081     IErMin= 1 ErrMin= 2.46D-02
 ErrMax= 4.50D-02  0.00D+00 EMaxC= 1.00D-01 BMatC= 3.94D-01 BMatP= 5.20D-01
 IDIUse=3 WtCom= 5.50D-01 WtEn= 4.50D-01
 Coeff-Com:  0.458D+00 0.542D+00
 Coeff-En:   0.541D+00 0.459D+00
 Coeff:      0.496D+00 0.504D+00
 Gap=     0.327 Goal=   None    Shift=    0.000
 RMSDP=1.99D-03 MaxDP=1.91D-01 DE= 5.21D-02 OVMax= 9.76D-02

 Cycle   3  Pass 1  IDiag  1:
 RMSU=  1.49D-03    CP:  3.02D-01  6.12D-01
 CoulSu:  requested number of processors reduced to:  14 ShMem   1 Linda.
 CalDSu:  requested number of processors reduced to:  31 ShMem   1 Linda.
 E= -464.432339577866     Delta-E=       -0.342856322409 Rises=F Damp=F
 DIIS: error= 9.51D-03 at cycle   3 NSaved=   3.
 NSaved= 3 IEnMin= 3 EnMin= -464.432339577866     IErMin= 3 ErrMin= 9.51D-03
 ErrMax= 9.51D-03  0.00D+00 EMaxC= 1.00D-01 BMatC= 2.17D-02 BMatP= 3.94D-01
 IDIUse=3 WtCom= 9.05D-01 WtEn= 9.51D-02
 Coeff-Com:  0.571D-01 0.197D+00 0.746D+00
 Coeff-En:   0.000D+00 0.000D+00 0.100D+01
 Coeff:      0.516D-01 0.178D+00 0.770D+00
 Gap=     0.315 Goal=   None    Shift=    0.000
 RMSDP=5.03D-04 MaxDP=5.70D-02 DE=-3.43D-01 OVMax= 1.98D-02

 Cycle   4  Pass 1  IDiag  1:
 RMSU=  4.81D-04    CP:  2.92D-01  6.27D-01  1.09D+00
 CoulSu:  requested number of processors reduced to:  14 ShMem   1 Linda.
 CalDSu:  requested number of processors reduced to:  31 ShMem   1 Linda.
 E= -464.448625829513     Delta-E=       -0.016286251647 Rises=F Damp=F
 DIIS: error= 2.02D-03 at cycle   4 NSaved=   4.
 NSaved= 4 IEnMin= 4 EnMin= -464.448625829513     IErMin= 4 ErrMin= 2.02D-03
 ErrMax= 2.02D-03  0.00D+00 EMaxC= 1.00D-01 BMatC= 1.40D-03 BMatP= 2.17D-02
 IDIUse=3 WtCom= 9.80D-01 WtEn= 2.02D-02
 Coeff-Com:  0.195D-02 0.359D-01 0.268D+00 0.694D+00
 Coeff-En:   0.000D+00 0.000D+00 0.000D+00 0.100D+01
 Coeff:      0.191D-02 0.352D-01 0.263D+00 0.700D+00
 Gap=     0.313 Goal=   None    Shift=    0.000
 RMSDP=1.26D-04 MaxDP=1.81D-02 DE=-1.63D-02 OVMax= 5.53D-03

 Cycle   5  Pass 1  IDiag  1:
 RMSU=  8.11D-05    CP:  2.93D-01  6.38D-01  1.10D+00  1.18D+00
 CoulSu:  requested number of processors reduced to:  14 ShMem   1 Linda.
 CalDSu:  requested number of processors reduced to:  31 ShMem   1 Linda.
 E= -464.449662888793     Delta-E=       -0.001037059280 Rises=F Damp=F
 DIIS: error= 5.41D-04 at cycle   5 NSaved=   5.
 NSaved= 5 IEnMin= 5 EnMin= -464.449662888793     IErMin= 5 ErrMin= 5.41D-04
 ErrMax= 5.41D-04  0.00D+00 EMaxC= 1.00D-01 BMatC= 1.25D-04 BMatP= 1.40D-03
 IDIUse=3 WtCom= 9.95D-01 WtEn= 5.41D-03
 Coeff-Com: -0.227D-02 0.331D-02 0.653D-01 0.309D+00 0.625D+00
 Coeff-En:   0.000D+00 0.000D+00 0.000D+00 0.000D+00 0.100D+01
 Coeff:     -0.226D-02 0.329D-02 0.649D-01 0.307D+00 0.627D+00
 Gap=     0.313 Goal=   None    Shift=    0.000
 DSYEVD-2 returned Info=        2265 IAlg= 4 N=  1132 NDim=  1132 NE2=       87324 trying  DSYEV.
 RMSDP=3.65D-05 MaxDP=6.02D-03 DE=-1.04D-03 OVMax= 1.76D-03

 Cycle   6  Pass 1  IDiag  1:
 RMSU=  1.92D-05    CP:  2.95D-01  6.42D-01  1.10D+00  1.24D+00  1.14D+00
 CoulSu:  requested number of processors reduced to:  14 ShMem   1 Linda.
 CalDSu:  requested number of processors reduced to:  31 ShMem   1 Linda.
 E= -464.449775018747     Delta-E=       -0.000112129953 Rises=F Damp=F
 DIIS: error= 7.33D-05 at cycle   6 NSaved=   6.
 NSaved= 6 IEnMin= 6 EnMin= -464.449775018747     IErMin= 6 ErrMin= 7.33D-05
 ErrMax= 7.33D-05  0.00D+00 EMaxC= 1.00D-01 BMatC= 1.74D-06 BMatP= 1.25D-04
 IDIUse=1 WtCom= 1.00D+00 WtEn= 0.00D+00
 Coeff-Com: -0.429D-03-0.304D-02-0.129D-01-0.101D-01 0.869D-01 0.940D+00
 Coeff:     -0.429D-03-0.304D-02-0.129D-01-0.101D-01 0.869D-01 0.940D+00
 Gap=     0.313 Goal=   None    Shift=    0.000
 DSYEVD-2 returned Info=        2265 IAlg= 4 N=  1132 NDim=  1132 NE2=       87324 trying  DSYEV.
 RMSDP=1.29D-05 MaxDP=1.94D-03 DE=-1.12D-04 OVMax= 2.83D-04

 Cycle   7  Pass 1  IDiag  1:
 RMSU=  5.17D-06    CP:  2.95D-01  6.43D-01  1.10D+00  1.26D+00  1.21D+00
                    CP:  1.20D+00
 CoulSu:  requested number of processors reduced to:  14 ShMem   1 Linda.
 CalDSu:  requested number of processors reduced to:  31 ShMem   1 Linda.
 E= -464.449776686717     Delta-E=       -0.000001667971 Rises=F Damp=F
 DIIS: error= 4.87D-06 at cycle   7 NSaved=   7.
 NSaved= 7 IEnMin= 7 EnMin= -464.449776686717     IErMin= 7 ErrMin= 4.87D-06
 ErrMax= 4.87D-06  0.00D+00 EMaxC= 1.00D-01 BMatC= 1.07D-08 BMatP= 1.74D-06
 IDIUse=1 WtCom= 1.00D+00 WtEn= 0.00D+00
 Coeff-Com:  0.257D-04 0.676D-04-0.359D-03-0.212D-02-0.811D-02-0.198D-01
 Coeff-Com:  0.103D+01
 Coeff:      0.257D-04 0.676D-04-0.359D-03-0.212D-02-0.811D-02-0.198D-01
 Coeff:      0.103D+01
 Gap=     0.313 Goal=   None    Shift=    0.000
 DSYEVD-2 returned Info=        2265 IAlg= 4 N=  1132 NDim=  1132 NE2=       87324 trying  DSYEV.
 RMSDP=2.26D-06 MaxDP=2.51D-04 DE=-1.67D-06 OVMax= 2.96D-05

 Cycle   8  Pass 1  IDiag  1:
 RMSU=  8.77D-07    CP:  2.95D-01  6.43D-01  1.10D+00  1.25D+00  1.21D+00
                    CP:  1.23D+00  1.21D+00
 CoulSu:  requested number of processors reduced to:  14 ShMem   1 Linda.
 CalDSu:  requested number of processors reduced to:  31 ShMem   1 Linda.
 E= -464.449776701849     Delta-E=       -0.000000015132 Rises=F Damp=F
 DIIS: error= 1.05D-06 at cycle   8 NSaved=   8.
 NSaved= 8 IEnMin= 8 EnMin= -464.449776701849     IErMin= 8 ErrMin= 1.05D-06
 ErrMax= 1.05D-06  0.00D+00 EMaxC= 1.00D-01 BMatC= 5.93D-10 BMatP= 1.07D-08
 IDIUse=1 WtCom= 1.00D+00 WtEn= 0.00D+00
 Coeff-Com:  0.135D-04 0.101D-03 0.346D-03-0.177D-04-0.341D-02-0.310D-01
 Coeff-Com:  0.956D-01 0.938D+00
 Coeff:      0.135D-04 0.101D-03 0.346D-03-0.177D-04-0.341D-02-0.310D-01
 Coeff:      0.956D-01 0.938D+00
 Gap=     0.313 Goal=   None    Shift=    0.000
 DSYEVD-2 returned Info=      643543 IAlg= 4 N=  1132 NDim=  1132 NE2=       87324 trying  DSYEV.
 RMSDP=2.38D-07 MaxDP=2.19D-05 DE=-1.51D-08 OVMax= 6.41D-06

 Cycle   9  Pass 1  IDiag  1:
 RMSU=  1.47D-07    CP:  2.95D-01  6.43D-01  1.10D+00  1.25D+00  1.21D+00
                    CP:  1.24D+00  1.23D+00  1.13D+00
 CoulSu:  requested number of processors reduced to:  14 ShMem   1 Linda.
 CalDSu:  requested number of processors reduced to:  31 ShMem   1 Linda.
 E= -464.449776702725     Delta-E=       -0.000000000876 Rises=F Damp=F
 DIIS: error= 2.94D-07 at cycle   9 NSaved=   9.
 NSaved= 9 IEnMin= 9 EnMin= -464.449776702725     IErMin= 9 ErrMin= 2.94D-07
 ErrMax= 2.94D-07  0.00D+00 EMaxC= 1.00D-01 BMatC= 2.21D-11 BMatP= 5.93D-10
 IDIUse=1 WtCom= 1.00D+00 WtEn= 0.00D+00
 Coeff-Com:  0.565D-07 0.356D-05 0.269D-04-0.176D-04-0.161D-03-0.168D-02
 Coeff-Com: -0.279D-01 0.899D-01 0.940D+00
 Coeff:      0.565D-07 0.356D-05 0.269D-04-0.176D-04-0.161D-03-0.168D-02
 Coeff:     -0.279D-01 0.899D-01 0.940D+00
 Gap=     0.313 Goal=   None    Shift=    0.000
 DSYEVD-2 returned Info=        2265 IAlg= 4 N=  1132 NDim=  1132 NE2=       87324 trying  DSYEV.
 RMSDP=6.25D-08 MaxDP=1.03D-05 DE=-8.76D-10 OVMax= 1.33D-06

 Cycle  10  Pass 1  IDiag  1:
 RMSU=  2.12D-08    CP:  2.95D-01  6.43D-01  1.10D+00  1.25D+00  1.21D+00
                    CP:  1.24D+00  1.23D+00  1.14D+00  1.17D+00
 CoulSu:  requested number of processors reduced to:  14 ShMem   1 Linda.
 CalDSu:  requested number of processors reduced to:  31 ShMem   1 Linda.
 E= -464.449776702629     Delta-E=        0.000000000096 Rises=F Damp=F
 DIIS: error= 3.60D-08 at cycle  10 NSaved=  10.
 NSaved=10 IEnMin= 9 EnMin= -464.449776702725     IErMin=10 ErrMin= 3.60D-08
 ErrMax= 3.60D-08  0.00D+00 EMaxC= 1.00D-01 BMatC= 5.99D-13 BMatP= 2.21D-11
 IDIUse=1 WtCom= 1.00D+00 WtEn= 0.00D+00
 Coeff-Com: -0.140D-06-0.111D-05-0.978D-06-0.698D-05 0.180D-04 0.274D-03
 Coeff-Com: -0.493D-02-0.543D-02 0.124D+00 0.886D+00
 Coeff:     -0.140D-06-0.111D-05-0.978D-06-0.698D-05 0.180D-04 0.274D-03
 Coeff:     -0.493D-02-0.543D-02 0.124D+00 0.886D+00
 Gap=     0.313 Goal=   None    Shift=    0.000
 DSYEVD-2 returned Info=      643543 IAlg= 4 N=  1132 NDim=  1132 NE2=       87324 trying  DSYEV.
 RMSDP=8.09D-09 MaxDP=1.00D-06 DE= 9.62D-11 OVMax= 1.69D-07

 Cycle  11  Pass 1  IDiag  1:
 RMSU=  3.42D-09    CP:  2.95D-01  6.43D-01  1.10D+00  1.25D+00  1.21D+00
                    CP:  1.24D+00  1.23D+00  1.14D+00  1.19D+00  1.06D+00
 CoulSu:  requested number of processors reduced to:  15 ShMem   1 Linda.
 CalDSu:  requested number of processors reduced to:  31 ShMem   1 Linda.
 E= -464.449776702688     Delta-E=       -0.000000000059 Rises=F Damp=F
 DIIS: error= 6.84D-09 at cycle  11 NSaved=  11.
 NSaved=11 IEnMin= 9 EnMin= -464.449776702725     IErMin=11 ErrMin= 6.84D-09
 ErrMax= 6.84D-09  0.00D+00 EMaxC= 1.00D-01 BMatC= 1.90D-14 BMatP= 5.99D-13
 IDIUse=1 WtCom= 1.00D+00 WtEn= 0.00D+00
 Coeff-Com:  0.223D-07-0.570D-07-0.207D-06 0.575D-06 0.451D-05 0.484D-04
 Coeff-Com:  0.856D-03-0.399D-02-0.298D-01 0.531D-01 0.980D+00
 Coeff:      0.223D-07-0.570D-07-0.207D-06 0.575D-06 0.451D-05 0.484D-04
 Coeff:      0.856D-03-0.399D-02-0.298D-01 0.531D-01 0.980D+00
 Gap=     0.313 Goal=   None    Shift=    0.000
 RMSDP=1.56D-09 MaxDP=5.77D-08 DE=-5.93D-11 OVMax= 4.20D-08

 SCF Done:  E(RM062X) =  -464.449776703     A.U. after   11 cycles
            NFock= 11  Conv=0.16D-08     -V/T= 2.0047
 KE= 4.622698073599D+02 PE=-2.555858066749D+03 EE= 8.898117639930D+02
 Leave Link  502 at Sat Apr 17 10:58:35 2021, MaxMem=   104857600 cpu:           90736.0 elap:            2232.4
 (Enter /s/ls4/users/knvvv/bin/g16sse/l601.exe)
 Copying SCF densities to generalized density rwf, IOpCl= 0 IROHF=0.

 **********************************************************************

            Population analysis using the SCF density.

 **********************************************************************

 Orbital symmetries:
       Occupied  (A1G) (A2U) (EU) (EU) (EG) (EG) (A1G) (EU) (EU)
                 (EG) (EG) (A2U) (A1G) (A2U) (EU) (EU) (A1G) (EG)
                 (EG) (A2U) (EG) (EG) (A1G) (EU) (EU) (A2U) (A1G)
                 (EU) (EU) (A2U) (EG) (EG) (A1G) (A1U) (EU) (EU)
                 (EG) (EG) (EU) (EU) (EG) (EG)
       Virtual   (A1G) (A2U) (EU) (EU) (EG) (EG) (A1G) (EG) (EG)
                 (A2U) (EU) (EU) (A2U) (A2G) (EU) (EU) (A1U) (EG)
                 (EG) (A2U) (A1G) (A1G) (EG) (EG) (EG) (EG) (A1G)
                 (EU) (EU) (EG) (EG) (A1U) (EU) (EU) (A2U) (A2G)
                 (EG) (EG) (A1G) (A2U) (EU) (EU) (A2U) (EU) (EU)
                 (EU) (EU) (EU) (EU) (A2U) (A1G) (A1U) (A2U) (EU)
                 (EU) (A1G) (EG) (EG) (EG) (EG) (A1G) (A2G) (EG)
                 (EG) (EG) (EG) (EG) (EG) (A2G) (A1G) (EU) (EU)
                 (A1U) (EG) (EG) (A2U) (A1G) (EG) (EG) (A2U) (EU)
                 (EU) (EU) (EU) (EG) (EG) (A1U) (A1G) (EU) (EU)
                 (EU) (EU) (A2G) (EG) (EG) (EU) (EU) (A2U) (A1G)
                 (EG) (EG) (EU) (EU) (A2U) (EU) (EU) (A1G) (A2U)
                 (EU) (EU) (EU) (EU) (EG) (EG) (A2G) (A1U) (A2U)
                 (EG) (EG) (EG) (EG) (A1G) (A1G) (EG) (EG) (A2U)
                 (EU) (EU) (A2U) (A2G) (EG) (EG) (A1U) (EU) (EU)
                 (A2G) (EU) (EU) (A1G) (EG) (EG) (EG) (EG) (A1G)
                 (EG) (EG) (A2U) (EU) (EU) (A1U) (A2G) (EU) (EU)
                 (EG) (EG) (EU) (EU) (EG) (EG) (A2U) (A1G) (EU)
                 (EU) (A1U) (EG) (EG) (A2U) (A1G) (A2U) (EU) (EU)
                 (EG) (EG) (EG) (EG) (EU) (EU) (A1G) (EU) (EU)
                 (A1G) (A2G) (EG) (EG) (A2U) (A1U) (A1G) (EG) (EG)
                 (EU) (EU) (A2U) (EU) (EU) (EG) (EG) (A1G) (EU)
                 (EU) (A2U) (EG) (EG) (A2G) (A1U) (EU) (EU) (A1G)
                 (EU) (EU) (A2U) (A1G) (EG) (EG) (EG) (EG) (EU)
                 (EU) (A2U) (EG) (EG) (EU) (EU) (A2G) (EU) (EU)
                 (A2U) (EG) (EG) (A1U) (EU) (EU) (EG) (EG) (A1U)
                 (A2U) (EG) (EG) (A1G) (EG) (EG) (A2G) (A1G) (A1G)
                 (EG) (EG) (EU) (EU) (A2U) (EU) (EU) (A1G) (EU)
                 (EU) (A1U) (A2U) (A2G) (EG) (EG) (EG) (EG) (EU)
                 (EU) (A2U) (EU) (EU) (A2G) (A1U) (A2U) (EU) (EU)
                 (A1G) (EG) (EG) (A1G) (EG) (EG) (EU) (EU) (A1U)
                 (EG) (EG) (A1G) (A2G) (EU) (EU) (A2U) (EG) (EG)
                 (EU) (EU) (A1G) (A2U) (EG) (EG) (EU) (EU) (EG)
                 (EG) (A1G) (EU) (EU) (EG) (EG) (A2U) (A1G) (EU)
                 (EU) (EG) (EG) (A2G) (A1G) (A2U) (EU) (EU) (EG)
                 (EG) (A1U) (EU) (EU) (A2U) (EG) (EG) (EG) (EG)
                 (A1G) (A2U) (EU) (EU) (A1U) (EG) (EG) (A2U) (EU)
                 (EU) (EG) (EG) (A1G) (EU) (EU) (A2U) (A1U) (EU)
                 (EU) (EU) (EU) (A1G) (A2G) (EG) (EG) (A2G) (A1G)
                 (EG) (EG) (A2U) (EG) (EG) (EU) (EU) (A2U) (A1U)
                 (EG) (EG) (A2U) (EU) (EU) (A2G) (A1G) (EU) (EU)
                 (EG) (EG) (A1G) (EG) (EG) (EG) (EG) (A1U) (A1G)
                 (EU) (EU) (A2U) (A2G) (EU) (EU) (A1U) (EG) (EG)
                 (EU) (EU) (A1U) (EU) (EU) (A2U) (EG) (EG) (A1G)
                 (A2U) (A2G) (A1G) (EG) (EG) (EU) (EU) (A2U) (A2G)
                 (EG) (EG) (EU) (EU) (A1G) (A2G) (EG) (EG) (EU)
                 (EU) (A1U) (EU) (EU) (A1G) (EG) (EG) (EU) (EU)
                 (EG) (EG) (EU) (EU) (A1G) (A2U) (EG) (EG) (A2G)
                 (A1U) (EU) (EU) (A2U) (EU) (EU) (A1G) (EG) (EG)
                 (A2U) (EG) (EG) (EG) (EG) (EU) (EU) (A1U) (EU)
                 (EU) (EG) (EG) (A1G) (EG) (EG) (A2U) (EU) (EU)
                 (A2G) (A1G) (A1G) (A2U) (EG) (EG) (EU) (EU) (EU)
                 (EU) (A2U) (EG) (EG) (A2G) (A1G) (EU) (EU) (A2U)
                 (A1G) (EG) (EG) (A1U) (EU) (EU) (EG) (EG) (EU)
                 (EU) (A1G) (EG) (EG) (A2U) (EG) (EG) (EU) (EU)
                 (EG) (EG) (EU) (EU) (A2G) (A1U) (A1U) (EG) (EG)
                 (A2U) (EU) (EU) (A1G) (EU) (EU) (EG) (EG) (A2U)
                 (A1G) (A1U) (A2G) (EU) (EU) (EG) (EG) (A1G) (A2U)
                 (EU) (EU) (A2G) (EG) (EG) (A1G) (EG) (EG) (EU)
                 (EU) (A1U) (A1G) (EU) (EU) (EG) (EG) (A2U) (A2U)
                 (A2G) (EG) (EG) (EU) (EU) (A1U) (A2U) (EU) (EU)
                 (EG) (EG) (EG) (EG) (A1G) (EG) (EG) (EU) (EU)
                 (A1U) (A2G) (A2U) (EU) (EU) (EG) (EG) (A2G) (A2U)
                 (EU) (EU) (A1G) (EU) (EU) (EG) (EG) (A1G) (A1U)
                 (EU) (EU) (EG) (EG) (EG) (EG) (A2U) (EU) (EU)
                 (A2U) (A1G) (A2G) (EG) (EG) (A1U) (EU) (EU) (A2G)
                 (A1G) (A2U) (EU) (EU) (A2U) (EG) (EG) (EG) (EG)
                 (A1G) (EU) (EU) (EG) (EG) (EU) (EU) (A1G) (A1U)
                 (EU) (EU) (EG) (EG) (A2G) (A1G) (A2U) (EG) (EG)
                 (EU) (EU) (A2U) (EG) (EG) (EU) (EU) (A1U) (A1G)
                 (EG) (EG) (EU) (EU) (A2U) (EG) (EG) (A2G) (A1G)
                 (EU) (EU) (EG) (EG) (A2U) (EU) (EU) (A1U) (EU)
                 (EU) (A2U) (A1G) (EG) (EG) (A2U) (EU) (EU) (A1G)
                 (A2U) (EG) (EG) (EU) (EU) (A1U) (EG) (EG) (A1G)
                 (EG) (EG) (A1G) (EU) (EU) (A2G) (A2U) (EG) (EG)
                 (A2U) (EG) (EG) (EU) (EU) (A1G) (A1U) (A2G) (A1G)
                 (EU) (EU) (A1U) (EG) (EG) (A2U) (EU) (EU) (EG)
                 (EG) (EU) (EU) (A1G) (A2G) (EG) (EG) (A2U) (EU)
                 (EU) (EU) (EU) (A2U) (EG) (EG) (A1U) (EU) (EU)
                 (EG) (EG) (A2G) (EG) (EG) (A2U) (A1G) (A2G) (EG)
                 (EG) (EU) (EU) (EU) (EU) (A1U) (EU) (EU) (A2G)
                 (EG) (EG) (A1G) (A1U) (A1G) (EG) (EG) (EU) (EU)
                 (EG) (EG) (A1U) (A1G) (A2G) (A2G) (EU) (EU) (A2U)
                 (EU) (EU) (EG) (EG) (A1G) (EU) (EU) (EG) (EG)
                 (EU) (EU) (A2G) (EG) (EG) (A2U) (EG) (EG) (EU)
                 (EU) (A1U) (A2U) (A1U) (EU) (EU) (EG) (EG) (A1G)
                 (A2U) (A2G) (EU) (EU) (A1U) (EG) (EG) (EG) (EG)
                 (EU) (EU) (A1U) (EG) (EG) (EU) (EU) (A2U) (A2G)
                 (EG) (EG) (A1G) (EU) (EU) (A2U) (EG) (EG) (EU)
                 (EU) (A1G) (A1U) (EU) (EU) (A2G) (A2U) (EG) (EG)
                 (A1G) (EG) (EG) (EG) (EG) (EU) (EU) (A1G) (EU)
                 (EU) (A1G) (A2G) (EG) (EG) (A2U) (A1G) (A2U) (EU)
                 (EU) (EG) (EG) (A1U) (EU) (EU) (A2G) (EG) (EG)
                 (EU) (EU) (A1G) (EU) (EU) (A1U) (A2U) (EG) (EG)
                 (A2U) (A1G) (EG) (EG) (A2U) (EU) (EU) (EU) (EU)
                 (A1G) (EG) (EG) (A2U) (A1U) (EU) (EU) (A2G) (A1G)
                 (A2U) (EG) (EG) (EU) (EU) (EG) (EG) (EG) (EG)
                 (EU) (EU) (EG) (EG) (A1U) (A1G) (A2U) (EU) (EU)
                 (A2G) (EG) (EG) (EU) (EU) (A1U) (EG) (EG) (A1G)
                 (EU) (EU) (EG) (EG) (A2G) (EU) (EU) (A2G) (EG)
                 (EG) (EU) (EU) (EG) (EG) (A1G) (A2U) (A1U) (EU)
                 (EU) (EU) (EU) (EG) (EG) (A2U) (A1G) (A2G) (A1G)
                 (EG) (EG) (EU) (EU) (A1U) (A1G) (A2U) (EU) (EU)
                 (EG) (EG) (A2U) (A2G) (A1U) (EU) (EU) (EG) (EG)
                 (EU) (EU) (EG) (EG) (A2U) (EG) (EG) (EU) (EU)
                 (A1G) (A2U) (A1U) (EG) (EG) (EG) (EG) (A2G) (EU)
                 (EU) (EU) (EU) (A1G) (EU) (EU) (EG) (EG) (A2G)
                 (EU) (EU) (A2U) (A1U) (EG) (EG) (A2G) (EU) (EU)
                 (A1G) (A1U) (EU) (EU) (A1G) (EG) (EG) (A2U) (EG)
                 (EG) (EU) (EU) (A1G) (EU) (EU) (EG) (EG) (A2U)
                 (A2G) (EG) (EG) (A2G) (A1U) (EU) (EU) (EG) (EG)
                 (A2U) (A2G) (A1U) (EU) (EU) (EG) (EG) (A2U) (A1G)
                 (EG) (EG) (EU) (EU) (A2U) (EG) (EG) (A1G) (EG)
                 (EG) (A1U) (EU) (EU) (EU) (EU) (A1G) (A2U) (A2G)
                 (EU) (EU) (EG) (EG) (EU) (EU) (A1G) (EG) (EG)
                 (A2U) (A1G) (A2U) (EG) (EG) (A1G) (EU) (EU) (A2G)
                 (A1U) (EG) (EG) (EU) (EU) (A2U) (EU) (EU) (EG)
                 (EG) (A2U) (EG) (EG) (A1G) (EU) (EU) (A2U) (A1G)
                 (EU) (EU) (EG) (EG) (A1G) (EU) (EU) (EG) (EG)
                 (A2U) (A1G) (A2U) (EU) (EU) (EG) (EG) (A1G) (EU)
                 (EU) (EG) (EG) (A2U) (A1G) (A2U) (EU) (EU) (EG)
                 (EG)
 The electronic state is 1-A1G.
 Alpha  occ. eigenvalues --  -10.53583 -10.53582 -10.53522 -10.53522 -10.53521
 Alpha  occ. eigenvalues --  -10.53521 -10.53454 -10.53436 -10.53436 -10.53403
 Alpha  occ. eigenvalues --  -10.53403 -10.53387  -1.03823  -0.96731  -0.85293
 Alpha  occ. eigenvalues --   -0.85293  -0.83782  -0.72869  -0.72869  -0.62843
 Alpha  occ. eigenvalues --   -0.62400  -0.62400  -0.61666  -0.61392  -0.61392
 Alpha  occ. eigenvalues --   -0.57287  -0.48547  -0.48164  -0.48164  -0.46449
 Alpha  occ. eigenvalues --   -0.46214  -0.46214  -0.41626  -0.39343  -0.37761
 Alpha  occ. eigenvalues --   -0.37761  -0.35797  -0.35797  -0.32577  -0.32577
 Alpha  occ. eigenvalues --   -0.30545  -0.30545
 Alpha virt. eigenvalues --    0.00770   0.02406   0.02601   0.02601   0.04097
 Alpha virt. eigenvalues --    0.04097   0.04316   0.04771   0.04771   0.07466
 Alpha virt. eigenvalues --    0.07550   0.07550   0.09374   0.10476   0.11672
 Alpha virt. eigenvalues --    0.11672   0.12051   0.13979   0.13979   0.14624
 Alpha virt. eigenvalues --    0.14666   0.15314   0.16453   0.16453   0.16826
 Alpha virt. eigenvalues --    0.16826   0.17184   0.18019   0.18019   0.18820
 Alpha virt. eigenvalues --    0.18820   0.19985   0.20076   0.20076   0.20087
 Alpha virt. eigenvalues --    0.20481   0.20654   0.20654   0.21672   0.21925
 Alpha virt. eigenvalues --    0.21930   0.21930   0.23141   0.23545   0.23545
 Alpha virt. eigenvalues --    0.24426   0.24426   0.25744   0.25744   0.26053
 Alpha virt. eigenvalues --    0.26495   0.26681   0.27060   0.27401   0.27401
 Alpha virt. eigenvalues --    0.28120   0.28142   0.28142   0.29710   0.29710
 Alpha virt. eigenvalues --    0.30975   0.31073   0.31837   0.31837   0.32879
 Alpha virt. eigenvalues --    0.32879   0.33387   0.33387   0.33708   0.33926
 Alpha virt. eigenvalues --    0.34966   0.34966   0.36218   0.36715   0.36715
 Alpha virt. eigenvalues --    0.37725   0.38064   0.38575   0.38575   0.38664
 Alpha virt. eigenvalues --    0.38828   0.38828   0.39233   0.39233   0.39342
 Alpha virt. eigenvalues --    0.39342   0.39992   0.40172   0.40231   0.40231
 Alpha virt. eigenvalues --    0.41070   0.41070   0.41410   0.41842   0.41842
 Alpha virt. eigenvalues --    0.42325   0.42325   0.43514   0.44517   0.44677
 Alpha virt. eigenvalues --    0.44677   0.44764   0.44764   0.46083   0.46514
 Alpha virt. eigenvalues --    0.46514   0.47309   0.48550   0.49049   0.49049
 Alpha virt. eigenvalues --    0.49534   0.49534   0.51076   0.51076   0.51589
 Alpha virt. eigenvalues --    0.52291   0.52435   0.52546   0.52546   0.53023
 Alpha virt. eigenvalues --    0.53023   0.53269   0.54202   0.54413   0.54413
 Alpha virt. eigenvalues --    0.54741   0.55153   0.55153   0.55888   0.56561
 Alpha virt. eigenvalues --    0.56658   0.56658   0.57440   0.57861   0.57861
 Alpha virt. eigenvalues --    0.58005   0.58746   0.58746   0.58829   0.59080
 Alpha virt. eigenvalues --    0.59080   0.60388   0.60388   0.60830   0.61598
 Alpha virt. eigenvalues --    0.61598   0.62551   0.62595   0.62595   0.62650
 Alpha virt. eigenvalues --    0.62807   0.63599   0.63599   0.64531   0.64531
 Alpha virt. eigenvalues --    0.65035   0.65035   0.65571   0.65571   0.66148
 Alpha virt. eigenvalues --    0.66608   0.66893   0.66893   0.67756   0.67887
 Alpha virt. eigenvalues --    0.67887   0.68948   0.71217   0.74546   0.76487
 Alpha virt. eigenvalues --    0.76487   0.76537   0.76537   0.80095   0.80095
 Alpha virt. eigenvalues --    0.80614   0.80614   0.81408   0.82621   0.82621
 Alpha virt. eigenvalues --    0.86358   0.86846   0.88325   0.88325   0.89189
 Alpha virt. eigenvalues --    0.90036   0.90558   0.90786   0.90786   0.90914
 Alpha virt. eigenvalues --    0.90914   0.93757   0.94006   0.94006   0.95090
 Alpha virt. eigenvalues --    0.95090   0.95481   0.97159   0.97159   0.97269
 Alpha virt. eigenvalues --    0.98905   0.98905   1.00326   1.02914   1.03422
 Alpha virt. eigenvalues --    1.03422   1.04524   1.06937   1.06937   1.07639
 Alpha virt. eigenvalues --    1.08045   1.08499   1.08499   1.08801   1.08801
 Alpha virt. eigenvalues --    1.09208   1.09208   1.09385   1.09668   1.09668
 Alpha virt. eigenvalues --    1.11210   1.11210   1.12906   1.13341   1.13341
 Alpha virt. eigenvalues --    1.14294   1.14959   1.14959   1.14975   1.15236
 Alpha virt. eigenvalues --    1.15236   1.17900   1.17900   1.19157   1.19835
 Alpha virt. eigenvalues --    1.20745   1.20745   1.21031   1.21551   1.21551
 Alpha virt. eigenvalues --    1.22854   1.23320   1.24353   1.25180   1.25180
 Alpha virt. eigenvalues --    1.25457   1.25457   1.28622   1.30558   1.30558
 Alpha virt. eigenvalues --    1.31510   1.31669   1.31669   1.34025   1.34302
 Alpha virt. eigenvalues --    1.35274   1.35616   1.35616   1.40732   1.40732
 Alpha virt. eigenvalues --    1.41207   1.41207   1.41830   1.44212   1.44212
 Alpha virt. eigenvalues --    1.44405   1.45055   1.45287   1.46785   1.46785
 Alpha virt. eigenvalues --    1.46991   1.47636   1.47636   1.49636   1.49716
 Alpha virt. eigenvalues --    1.49716   1.50555   1.50555   1.50939   1.53838
 Alpha virt. eigenvalues --    1.53838   1.54139   1.54612   1.55883   1.55883
 Alpha virt. eigenvalues --    1.56164   1.60246   1.60246   1.60681   1.60681
 Alpha virt. eigenvalues --    1.61714   1.65175   1.65456   1.65456   1.69061
 Alpha virt. eigenvalues --    1.69061   1.69402   1.69402   1.69532   1.70110
 Alpha virt. eigenvalues --    1.70110   1.71397   1.71397   1.71663   1.72873
 Alpha virt. eigenvalues --    1.72971   1.72971   1.79715   1.79715   1.84783
 Alpha virt. eigenvalues --    1.88867   1.88877   1.89561   1.89561   1.91399
 Alpha virt. eigenvalues --    1.91399   1.91742   1.92255   1.92255   1.93531
 Alpha virt. eigenvalues --    1.93881   1.93881   1.96002   1.96002   1.96486
 Alpha virt. eigenvalues --    1.97529   1.98685   1.98685   1.99642   2.01887
 Alpha virt. eigenvalues --    2.01887   2.03971   2.04189   2.04189   2.04332
 Alpha virt. eigenvalues --    2.04332   2.07172   2.08262   2.08262   2.11265
 Alpha virt. eigenvalues --    2.13775   2.13780   2.13780   2.15231   2.15231
 Alpha virt. eigenvalues --    2.15432   2.15657   2.16919   2.16919   2.18218
 Alpha virt. eigenvalues --    2.20110   2.20404   2.20404   2.20869   2.22858
 Alpha virt. eigenvalues --    2.22858   2.24613   2.24613   2.26227   2.28598
 Alpha virt. eigenvalues --    2.31083   2.31083   2.31244   2.32256   2.32256
 Alpha virt. eigenvalues --    2.32325   2.34090   2.35147   2.35147   2.37688
 Alpha virt. eigenvalues --    2.37688   2.38834   2.39901   2.39901   2.41077
 Alpha virt. eigenvalues --    2.41077   2.41595   2.41650   2.42171   2.42171
 Alpha virt. eigenvalues --    2.44774   2.44970   2.45261   2.45261   2.51400
 Alpha virt. eigenvalues --    2.52355   2.52355   2.52942   2.52942   2.53131
 Alpha virt. eigenvalues --    2.54650   2.54650   2.55159   2.55602   2.55602
 Alpha virt. eigenvalues --    2.55994   2.56113   2.57572   2.57638   2.58326
 Alpha virt. eigenvalues --    2.58326   2.61608   2.61608   2.62287   2.62953
 Alpha virt. eigenvalues --    2.63304   2.63304   2.65182   2.65182   2.66531
 Alpha virt. eigenvalues --    2.66874   2.68982   2.68982   2.69862   2.69862
 Alpha virt. eigenvalues --    2.72593   2.73375   2.73375   2.73621   2.75249
 Alpha virt. eigenvalues --    2.75249   2.76159   2.76159   2.77161   2.77161
 Alpha virt. eigenvalues --    2.78858   2.78858   2.79374   2.79504   2.79573
 Alpha virt. eigenvalues --    2.79573   2.79585   2.80237   2.81781   2.81781
 Alpha virt. eigenvalues --    2.82972   2.85076   2.85076   2.85493   2.86843
 Alpha virt. eigenvalues --    2.86843   2.87946   2.90919   2.90919   2.92533
 Alpha virt. eigenvalues --    2.92533   2.92871   2.92871   2.95211   2.96128
 Alpha virt. eigenvalues --    2.96128   2.97652   2.97652   2.97759   2.98772
 Alpha virt. eigenvalues --    2.98772   2.99409   3.01769   3.01769   3.01839
 Alpha virt. eigenvalues --    3.03694   3.05273   3.05296   3.06779   3.06779
 Alpha virt. eigenvalues --    3.07354   3.07354   3.07726   3.07726   3.08256
 Alpha virt. eigenvalues --    3.08828   3.08828   3.08980   3.10413   3.13294
 Alpha virt. eigenvalues --    3.13294   3.14245   3.15504   3.18170   3.18170
 Alpha virt. eigenvalues --    3.18218   3.19075   3.19075   3.20258   3.20258
 Alpha virt. eigenvalues --    3.22544   3.22544   3.24409   3.26847   3.26847
 Alpha virt. eigenvalues --    3.28331   3.29775   3.29775   3.31139   3.31139
 Alpha virt. eigenvalues --    3.31840   3.31840   3.33238   3.33238   3.34649
 Alpha virt. eigenvalues --    3.35522   3.38275   3.40028   3.40028   3.40648
 Alpha virt. eigenvalues --    3.41583   3.41583   3.41707   3.44363   3.44363
 Alpha virt. eigenvalues --    3.45639   3.45639   3.45766   3.47934   3.48875
 Alpha virt. eigenvalues --    3.49097   3.50860   3.50860   3.51711   3.51711
 Alpha virt. eigenvalues --    3.52689   3.54038   3.59483   3.59483   3.60685
 Alpha virt. eigenvalues --    3.61425   3.61425   3.64355   3.66448   3.66448
 Alpha virt. eigenvalues --    3.66730   3.66730   3.66997   3.72091   3.74958
 Alpha virt. eigenvalues --    3.74958   3.76685   3.76685   3.79580   3.83543
 Alpha virt. eigenvalues --    3.84877   3.85728   3.85728   3.85757   3.85757
 Alpha virt. eigenvalues --    3.88782   3.88807   3.89173   3.89173   3.89672
 Alpha virt. eigenvalues --    3.89672   3.95255   3.95255   3.97737   4.02409
 Alpha virt. eigenvalues --    4.02409   4.03174   4.03174   4.04781   4.06326
 Alpha virt. eigenvalues --    4.07647   4.08932   4.08932   4.11561   4.11561
 Alpha virt. eigenvalues --    4.13498   4.14117   4.16513   4.16513   4.20469
 Alpha virt. eigenvalues --    4.23459   4.23459   4.30122   4.30122   4.30178
 Alpha virt. eigenvalues --    4.30882   4.33586   4.33586   4.36988   4.36988
 Alpha virt. eigenvalues --    4.40179   4.40179   4.40659   4.45452   4.45452
 Alpha virt. eigenvalues --    4.48188   4.48332   4.49529   4.53787   4.53787
 Alpha virt. eigenvalues --    4.55333   4.66106   4.66106   4.70489   4.72309
 Alpha virt. eigenvalues --    4.80055   4.80131   4.80131   4.81985   4.86329
 Alpha virt. eigenvalues --    4.86329   4.88864   4.88864   4.89041   4.91288
 Alpha virt. eigenvalues --    4.91288   4.91382   4.91382   4.91971   4.91971
 Alpha virt. eigenvalues --    4.92982   5.01575   5.03985   5.03985   5.08341
 Alpha virt. eigenvalues --    5.08341   5.10790   5.13452   5.13734   5.17342
 Alpha virt. eigenvalues --    5.17342   5.19071   5.19071   5.22349   5.24921
 Alpha virt. eigenvalues --    5.24921   5.26196   5.26196   5.26780   5.27492
 Alpha virt. eigenvalues --    5.31604   5.31604   5.32329   5.32329   5.37278
 Alpha virt. eigenvalues --    5.39137   5.39137   5.40768   5.41966   5.44160
 Alpha virt. eigenvalues --    5.44160   5.44605   5.44605   5.46137   5.47863
 Alpha virt. eigenvalues --    5.47863   5.57131   5.57804   5.57804   5.60500
 Alpha virt. eigenvalues --    5.60700   5.61564   5.61564   5.64954   5.65998
 Alpha virt. eigenvalues --    5.65998   5.71920   5.75989   5.77806   5.77806
 Alpha virt. eigenvalues --    5.78576   5.78576   5.82413   5.83299   5.83299
 Alpha virt. eigenvalues --    5.84350   5.85229   5.85229   5.85680   5.88605
 Alpha virt. eigenvalues --    5.88605   5.89945   5.91453   5.93138   5.93138
 Alpha virt. eigenvalues --    5.94270   5.95173   5.95173   5.96785   5.96785
 Alpha virt. eigenvalues --    5.97772   5.98232   5.98708   5.99164   6.01054
 Alpha virt. eigenvalues --    6.01054   6.01158   6.01679   6.01679   6.02110
 Alpha virt. eigenvalues --    6.04427   6.04427   6.04734   6.04734   6.05864
 Alpha virt. eigenvalues --    6.05864   6.07261   6.08625   6.09639   6.09639
 Alpha virt. eigenvalues --    6.10940   6.14137   6.14137   6.18139   6.18139
 Alpha virt. eigenvalues --    6.19769   6.20104   6.20104   6.21936   6.23079
 Alpha virt. eigenvalues --    6.23079   6.23238   6.23238   6.24078   6.25595
 Alpha virt. eigenvalues --    6.25595   6.27256   6.28305   6.28436   6.29456
 Alpha virt. eigenvalues --    6.29456   6.29978   6.29978   6.30839   6.30839
 Alpha virt. eigenvalues --    6.31318   6.36316   6.36316   6.37021   6.37121
 Alpha virt. eigenvalues --    6.37121   6.37735   6.38776   6.39092   6.41669
 Alpha virt. eigenvalues --    6.41669   6.42677   6.42677   6.45735   6.45735
 Alpha virt. eigenvalues --    6.45996   6.46662   6.46877   6.47794   6.50278
 Alpha virt. eigenvalues --    6.50278   6.52988   6.54923   6.54923   6.55451
 Alpha virt. eigenvalues --    6.55451   6.55914   6.57057   6.57057   6.57345
 Alpha virt. eigenvalues --    6.57345   6.61130   6.61130   6.61490   6.62113
 Alpha virt. eigenvalues --    6.62113   6.64124   6.65708   6.65708   6.66673
 Alpha virt. eigenvalues --    6.66673   6.67253   6.69312   6.70247   6.71408
 Alpha virt. eigenvalues --    6.71408   6.72031   6.72031   6.74144   6.80973
 Alpha virt. eigenvalues --    6.81563   6.81715   6.81715   6.83180   6.84225
 Alpha virt. eigenvalues --    6.84225   6.84882   6.84882   6.85111   6.85111
 Alpha virt. eigenvalues --    6.86104   6.87403   6.87403   6.87652   6.87652
 Alpha virt. eigenvalues --    6.88523   6.90660   6.90786   6.90786   6.91969
 Alpha virt. eigenvalues --    6.94704   6.94704   6.95885   6.96963   6.96963
 Alpha virt. eigenvalues --    6.98641   6.98641   6.99840   7.02108   7.05433
 Alpha virt. eigenvalues --    7.05433   7.06402   7.08503   7.08566   7.08566
 Alpha virt. eigenvalues --    7.10136   7.15475   7.15475   7.17696   7.17696
 Alpha virt. eigenvalues --    7.18708   7.18708   7.22678   7.23381   7.23381
 Alpha virt. eigenvalues --    7.23834   7.24477   7.25142   7.25142   7.27489
 Alpha virt. eigenvalues --    7.31980   7.32286   7.33996   7.33996   7.34967
 Alpha virt. eigenvalues --    7.34967   7.37011   7.37464   7.37464   7.38821
 Alpha virt. eigenvalues --    7.40668   7.40668   7.43879   7.43879   7.44387
 Alpha virt. eigenvalues --    7.45838   7.45838   7.46022   7.47298   7.51954
 Alpha virt. eigenvalues --    7.51954   7.54407   7.56125   7.58879   7.58879
 Alpha virt. eigenvalues --    7.60541   7.60778   7.60778   7.62818   7.62818
 Alpha virt. eigenvalues --    7.64075   7.65097   7.65097   7.65155   7.68788
 Alpha virt. eigenvalues --    7.68799   7.68799   7.68942   7.69426   7.70306
 Alpha virt. eigenvalues --    7.70765   7.70765   7.71704   7.71704   7.73576
 Alpha virt. eigenvalues --    7.73576   7.75322   7.75322   7.77367   7.77367
 Alpha virt. eigenvalues --    7.78830   7.78830   7.83245   7.83665   7.83742
 Alpha virt. eigenvalues --    7.84079   7.84079   7.84411   7.85386   7.85386
 Alpha virt. eigenvalues --    7.86549   7.86549   7.86778   7.87672   7.87672
 Alpha virt. eigenvalues --    7.96328   7.97000   7.97000   7.97124   7.97124
 Alpha virt. eigenvalues --    7.97602   7.98946   7.98946   8.00717   8.02789
 Alpha virt. eigenvalues --    8.02789   8.06169   8.06169   8.06408   8.06408
 Alpha virt. eigenvalues --    8.06782   8.08488   8.11609   8.12214   8.12214
 Alpha virt. eigenvalues --    8.13877   8.13877   8.14047   8.14047   8.15897
 Alpha virt. eigenvalues --    8.19483   8.21048   8.21850   8.22118   8.22118
 Alpha virt. eigenvalues --    8.22703   8.22703   8.24011   8.25032   8.25760
 Alpha virt. eigenvalues --    8.26026   8.26026   8.26405   8.26405   8.29276
 Alpha virt. eigenvalues --    8.31322   8.33018   8.34533   8.34533   8.34833
 Alpha virt. eigenvalues --    8.34833   8.38117   8.38117   8.38501   8.38501
 Alpha virt. eigenvalues --    8.43262   8.47354   8.47354   8.48504   8.48504
 Alpha virt. eigenvalues --    8.52957   8.53215   8.53875   8.56136   8.56136
 Alpha virt. eigenvalues --    8.59799   8.59799   8.60441   8.61566   8.61566
 Alpha virt. eigenvalues --    8.61814   8.61814   8.67112   8.68565   8.68565
 Alpha virt. eigenvalues --    8.71543   8.71543   8.73398   8.75845   8.75845
 Alpha virt. eigenvalues --    8.76262   8.77794   8.79409   8.79409   8.84237
 Alpha virt. eigenvalues --    8.87961   8.87961   8.89969   8.91479   8.92860
 Alpha virt. eigenvalues --    8.92860   8.94111   8.94840   8.94840   8.95532
 Alpha virt. eigenvalues --    8.97486   8.97486   8.97754   8.97754   9.00763
 Alpha virt. eigenvalues --    9.04057   9.04057   9.04971   9.04971   9.06595
 Alpha virt. eigenvalues --    9.09839   9.10067   9.10067   9.18635   9.21814
 Alpha virt. eigenvalues --    9.24170   9.24170   9.26852   9.26852   9.30055
 Alpha virt. eigenvalues --    9.32122   9.32691   9.34298   9.34298   9.37605
 Alpha virt. eigenvalues --    9.37605   9.37875   9.42914   9.49223   9.49223
 Alpha virt. eigenvalues --    9.53536   9.53536   9.55938   9.59172   9.59172
 Alpha virt. eigenvalues --    9.62276   9.72767   9.72767   9.74629   9.74825
 Alpha virt. eigenvalues --    9.74825   9.77265   9.77265   9.78978   9.79422
 Alpha virt. eigenvalues --    9.79764   9.83468   9.83468   9.86319   9.86319
 Alpha virt. eigenvalues --    9.91046   9.91046   9.91463   9.91536   9.91536
 Alpha virt. eigenvalues --    9.94790   9.94879   9.96323  10.05416  10.05416
 Alpha virt. eigenvalues --   10.08069  10.17892  10.17892  10.17913  10.18747
 Alpha virt. eigenvalues --   10.19388  10.19388  10.21638  10.21638  10.28212
 Alpha virt. eigenvalues --   10.39659  10.39659  10.47313  10.47313  12.87954
 Alpha virt. eigenvalues --   13.00325  13.00325  13.04999  13.07842  13.07842
 Alpha virt. eigenvalues --   13.22887  13.23252  13.25783  13.25783  13.32018
 Alpha virt. eigenvalues --   13.32018  28.97535  29.04200  29.04200  29.05240
 Alpha virt. eigenvalues --   29.05240  29.06200  29.12972  29.13938  29.19221
 Alpha virt. eigenvalues --   29.19221  29.24607  29.24607 146.55297 146.56216
 Alpha virt. eigenvalues --  146.56216 146.56349 146.56349 146.61557 146.68985
 Alpha virt. eigenvalues --  146.71693 146.73942 146.73942 146.77304 146.77304
          Condensed to atoms (all electrons):
               1          2          3          4          5          6
     1  C    5.933160   0.050652  -0.015450   0.050652  -0.036438   0.314139
     2  C    0.050652   5.933160   0.314139   0.050652   0.293724  -0.015450
     3  H   -0.015450   0.314139   0.342901  -0.015450  -0.058636   0.001108
     4  C    0.050652   0.050652  -0.015450   5.933160  -0.036438  -0.015450
     5  C   -0.036438   0.293724  -0.058636  -0.036438   6.436590  -0.014105
     6  H    0.314139  -0.015450   0.001108  -0.015450  -0.014105   0.342901
     7  C   -0.036438  -0.036438  -0.014105   0.293724  -0.121308  -0.014105
     8  H   -0.015450  -0.015450   0.001108   0.314139  -0.014105   0.001108
     9  H   -0.024499   0.008614   0.000126   0.008614  -0.002755   0.004568
    10  C   -0.032515  -0.032515  -0.001174   0.026089  -0.107019  -0.001174
    11  H    0.008614  -0.024499   0.004568   0.008614   0.269438   0.000126
    12  C   -0.107019   0.116222  -0.013483  -0.107019   0.006550   0.013816
    13  C    0.116222  -0.107019   0.013816  -0.107019   0.054573  -0.013483
    14  C   -0.032515   0.026089   0.001555  -0.032515   0.116222  -0.001174
    15  H    0.008614   0.008614   0.000126  -0.024499  -0.002755   0.000126
    16  C    0.293724  -0.036438  -0.014105  -0.036438  -0.121308  -0.058636
    17  C   -0.107019  -0.107019   0.013816   0.116222   0.054573   0.013816
    18  C    0.026089  -0.032515  -0.001174  -0.032515  -0.107019   0.001555
    19  H   -0.003704  -0.003704   0.003313   0.002902  -0.049984   0.003313
    20  H    0.002902  -0.003704   0.003313  -0.003704  -0.049984   0.000068
    21  H   -0.003704   0.002902   0.000068  -0.003704  -0.003373   0.003313
    22  H    0.001555  -0.001174   0.000163  -0.001174   0.013816   0.000010
    23  H   -0.001174  -0.001174   0.000163   0.001555   0.013816   0.000163
    24  H   -0.001174   0.001555   0.000010  -0.001174  -0.013483   0.000163
               7          8          9         10         11         12
     1  C   -0.036438  -0.015450  -0.024499  -0.032515   0.008614  -0.107019
     2  C   -0.036438  -0.015450   0.008614  -0.032515  -0.024499   0.116222
     3  H   -0.014105   0.001108   0.000126  -0.001174   0.004568  -0.013483
     4  C    0.293724   0.314139   0.008614   0.026089   0.008614  -0.107019
     5  C   -0.121308  -0.014105  -0.002755  -0.107019   0.269438   0.006550
     6  H   -0.014105   0.001108   0.004568  -0.001174   0.000126   0.013816
     7  C    6.436590  -0.058636  -0.002755   0.116222  -0.002755   0.054573
     8  H   -0.058636   0.342901   0.000126   0.001555   0.000126   0.013816
     9  H   -0.002755   0.000126   0.344889  -0.003704   0.000750  -0.049984
    10  C    0.116222   0.001555  -0.003704   5.933160  -0.003704  -0.036438
    11  H   -0.002755   0.000126   0.000750  -0.003704   0.344889  -0.003373
    12  C    0.054573   0.013816  -0.049984  -0.036438  -0.003373   6.436590
    13  C    0.054573   0.013816  -0.003373  -0.036438  -0.049984  -0.121308
    14  C   -0.107019  -0.001174  -0.003704   0.050652   0.002902   0.293724
    15  H    0.269438   0.004568   0.000750   0.002902   0.000750  -0.049984
    16  C   -0.121308  -0.014105   0.269438  -0.107019  -0.002755   0.054573
    17  C    0.006550  -0.013483  -0.049984   0.293724  -0.049984  -0.121308
    18  C   -0.107019  -0.001174   0.002902   0.050652  -0.003704  -0.036438
    19  H   -0.003373   0.000068   0.008387  -0.024499   0.008387  -0.002755
    20  H   -0.049984   0.003313  -0.000026   0.008614   0.008387  -0.002755
    21  H   -0.049984   0.003313   0.008387   0.008614  -0.000026   0.269438
    22  H    0.013816   0.000163   0.000068  -0.015450   0.003313  -0.014105
    23  H   -0.013483   0.000010   0.003313   0.314139   0.003313  -0.014105
    24  H    0.013816   0.000163   0.003313  -0.015450   0.000068  -0.058636
              13         14         15         16         17         18
     1  C    0.116222  -0.032515   0.008614   0.293724  -0.107019   0.026089
     2  C   -0.107019   0.026089   0.008614  -0.036438  -0.107019  -0.032515
     3  H    0.013816   0.001555   0.000126  -0.014105   0.013816  -0.001174
     4  C   -0.107019  -0.032515  -0.024499  -0.036438   0.116222  -0.032515
     5  C    0.054573   0.116222  -0.002755  -0.121308   0.054573  -0.107019
     6  H   -0.013483  -0.001174   0.000126  -0.058636   0.013816   0.001555
     7  C    0.054573  -0.107019   0.269438  -0.121308   0.006550  -0.107019
     8  H    0.013816  -0.001174   0.004568  -0.014105  -0.013483  -0.001174
     9  H   -0.003373  -0.003704   0.000750   0.269438  -0.049984   0.002902
    10  C   -0.036438   0.050652   0.002902  -0.107019   0.293724   0.050652
    11  H   -0.049984   0.002902   0.000750  -0.002755  -0.049984  -0.003704
    12  C   -0.121308   0.293724  -0.049984   0.054573  -0.121308  -0.036438
    13  C    6.436590  -0.036438  -0.049984   0.006550  -0.121308   0.293724
    14  C   -0.036438   5.933160  -0.003704  -0.107019  -0.036438   0.050652
    15  H   -0.049984  -0.003704   0.344889  -0.002755  -0.003373  -0.003704
    16  C    0.006550  -0.107019  -0.002755   6.436590   0.054573   0.116222
    17  C   -0.121308  -0.036438  -0.003373   0.054573   6.436590  -0.036438
    18  C    0.293724   0.050652  -0.003704   0.116222  -0.036438   5.933160
    19  H   -0.002755   0.008614  -0.000026  -0.049984   0.269438   0.008614
    20  H    0.269438   0.008614   0.008387  -0.003373  -0.002755  -0.024499
    21  H   -0.002755  -0.024499   0.008387  -0.049984  -0.002755   0.008614
    22  H   -0.058636  -0.015450   0.003313  -0.013483  -0.014105   0.314139
    23  H   -0.014105  -0.015450   0.000068   0.013816  -0.058636  -0.015450
    24  H   -0.014105   0.314139   0.003313   0.013816  -0.014105  -0.015450
              19         20         21         22         23         24
     1  C   -0.003704   0.002902  -0.003704   0.001555  -0.001174  -0.001174
     2  C   -0.003704  -0.003704   0.002902  -0.001174  -0.001174   0.001555
     3  H    0.003313   0.003313   0.000068   0.000163   0.000163   0.000010
     4  C    0.002902  -0.003704  -0.003704  -0.001174   0.001555  -0.001174
     5  C   -0.049984  -0.049984  -0.003373   0.013816   0.013816  -0.013483
     6  H    0.003313   0.000068   0.003313   0.000010   0.000163   0.000163
     7  C   -0.003373  -0.049984  -0.049984   0.013816  -0.013483   0.013816
     8  H    0.000068   0.003313   0.003313   0.000163   0.000010   0.000163
     9  H    0.008387  -0.000026   0.008387   0.000068   0.003313   0.003313
    10  C   -0.024499   0.008614   0.008614  -0.015450   0.314139  -0.015450
    11  H    0.008387   0.008387  -0.000026   0.003313   0.003313   0.000068
    12  C   -0.002755  -0.002755   0.269438  -0.014105  -0.014105  -0.058636
    13  C   -0.002755   0.269438  -0.002755  -0.058636  -0.014105  -0.014105
    14  C    0.008614   0.008614  -0.024499  -0.015450  -0.015450   0.314139
    15  H   -0.000026   0.008387   0.008387   0.003313   0.000068   0.003313
    16  C   -0.049984  -0.003373  -0.049984  -0.013483   0.013816   0.013816
    17  C    0.269438  -0.002755  -0.002755  -0.014105  -0.058636  -0.014105
    18  C    0.008614  -0.024499   0.008614   0.314139  -0.015450  -0.015450
[...]
 Alpha virt. eigenvalues --    4.48188   4.48332   4.49529   4.53787   4.53787
 Alpha virt. eigenvalues --    4.55333   4.66106   4.66106   4.70489   4.72309
 Alpha virt. eigenvalues --    4.80055   4.80131   4.80131   4.81985   4.86329
 Alpha virt. eigenvalues --    4.86329   4.88864   4.88864   4.89041   4.91288
 Alpha virt. eigenvalues --    4.91288   4.91382   4.91382   4.91971   4.91971
 Alpha virt. eigenvalues --    4.92982   5.01575   5.03985   5.03985   5.08341
 Alpha virt. eigenvalues --    5.08341   5.10790   5.13452   5.13734   5.17342
 Alpha virt. eigenvalues --    5.17342   5.19071   5.19071   5.22349   5.24921
 Alpha virt. eigenvalues --    5.24921   5.26196   5.26196   5.26780   5.27492
 Alpha virt. eigenvalues --    5.31604   5.31604   5.32329   5.32329   5.37278
 Alpha virt. eigenvalues --    5.39137   5.39137   5.40768   5.41966   5.44160
 Alpha virt. eigenvalues --    5.44160   5.44605   5.44605   5.46137   5.47863
 Alpha virt. eigenvalues --    5.47863   5.57131   5.57804   5.57804   5.60500
 Alpha virt. eigenvalues --    5.60700   5.61564   5.61564   5.64954   5.65998
 Alpha virt. eigenvalues --    5.65998   5.71920   5.75989   5.77806   5.77806
 Alpha virt. eigenvalues --    5.78576   5.78576   5.82413   5.83299   5.83299
 Alpha virt. eigenvalues --    5.84350   5.85229   5.85229   5.85680   5.88605
 Alpha virt. eigenvalues --    5.88605   5.89945   5.91453   5.93138   5.93138
 Alpha virt. eigenvalues --    5.94270   5.95173   5.95173   5.96785   5.96785
 Alpha virt. eigenvalues --    5.97772   5.98232   5.98708   5.99164   6.01054
 Alpha virt. eigenvalues --    6.01054   6.01158   6.01679   6.01679   6.02110
 Alpha virt. eigenvalues --    6.04427   6.04427   6.04734   6.04734   6.05864
 Alpha virt. eigenvalues --    6.05864   6.07261   6.08625   6.09639   6.09639
 Alpha virt. eigenvalues --    6.10940   6.14137   6.14137   6.18139   6.18139
 Alpha virt. eigenvalues --    6.19769   6.20104   6.20104   6.21936   6.23079
 Alpha virt. eigenvalues --    6.23079   6.23238   6.23238   6.24078   6.25595
 Alpha virt. eigenvalues --    6.25595   6.27256   6.28305   6.28436   6.29456
 Alpha virt. eigenvalues --    6.29456   6.29978   6.29978   6.30839   6.30839
 Alpha virt. eigenvalues --    6.31318   6.36316   6.36316   6.37021   6.37121
 Alpha virt. eigenvalues --    6.37121   6.37735   6.38776   6.39092   6.41669
 Alpha virt. eigenvalues --    6.41669   6.42677   6.42677   6.45735   6.45735
 Alpha virt. eigenvalues --    6.45996   6.46662   6.46877   6.47794   6.50278
 Alpha virt. eigenvalues --    6.50278   6.52988   6.54923   6.54923   6.55451
 Alpha virt. eigenvalues --    6.55451   6.55914   6.57057   6.57057   6.57345
 Alpha virt. eigenvalues --    6.57345   6.61130   6.61130   6.61490   6.62113
 Alpha virt. eigenvalues --    6.62113   6.64124   6.65708   6.65708   6.66673
 Alpha virt. eigenvalues --    6.66673   6.67253   6.69312   6.70247   6.71408
 Alpha virt. eigenvalues --    6.71408   6.72031   6.72031   6.74144   6.80973
 Alpha virt. eigenvalues --    6.81563   6.81715   6.81715   6.83180   6.84225
 Alpha virt. eigenvalues --    6.84225   6.84882   6.84882   6.85111   6.85111
 Alpha virt. eigenvalues --    6.86104   6.87403   6.87403   6.87652   6.87652
 Alpha virt. eigenvalues --    6.88523   6.90660   6.90786   6.90786   6.91969
 Alpha virt. eigenvalues --    6.94704   6.94704   6.95885   6.96963   6.96963
 Alpha virt. eigenvalues --    6.98641   6.98641   6.99840   7.02108   7.05433
 Alpha virt. eigenvalues --    7.05433   7.06402   7.08503   7.08566   7.08566
 Alpha virt. eigenvalues --    7.10136   7.15475   7.15475   7.17696   7.17696
 Alpha virt. eigenvalues --    7.18708   7.18708   7.22678   7.23381   7.23381
 Alpha virt. eigenvalues --    7.23834   7.24477   7.25142   7.25142   7.27489
 Alpha virt. eigenvalues --    7.31980   7.32286   7.33996   7.33996   7.34967
 Alpha virt. eigenvalues --    7.34967   7.37011   7.37464   7.37464   7.38821
 Alpha virt. eigenvalues --    7.40668   7.40668   7.43879   7.43879   7.44387
 Alpha virt. eigenvalues --    7.45838   7.45838   7.46022   7.47298   7.51954
 Alpha virt. eigenvalues --    7.51954   7.54407   7.56125   7.58879   7.58879
 Alpha virt. eigenvalues --    7.60541   7.60778   7.60778   7.62818   7.62818
 Alpha virt. eigenvalues --    7.64075   7.65097   7.65097   7.65155   7.68788
 Alpha virt. eigenvalues --    7.68799   7.68799   7.68942   7.69426   7.70306
 Alpha virt. eigenvalues --    7.70765   7.70765   7.71704   7.71704   7.73576
 Alpha virt. eigenvalues --    7.73576   7.75322   7.75322   7.77367   7.77367
 Alpha virt. eigenvalues --    7.78830   7.78830   7.83245   7.83665   7.83742
 Alpha virt. eigenvalues --    7.84079   7.84079   7.84411   7.85386   7.85386
 Alpha virt. eigenvalues --    7.86549   7.86549   7.86778   7.87672   7.87672
 Alpha virt. eigenvalues --    7.96328   7.97000   7.97000   7.97124   7.97124
 Alpha virt. eigenvalues --    7.97602   7.98946   7.98946   8.00717   8.02789
 Alpha virt. eigenvalues --    8.02789   8.06169   8.06169   8.06408   8.06408
 Alpha virt. eigenvalues --    8.06782   8.08488   8.11609   8.12214   8.12214
 Alpha virt. eigenvalues --    8.13877   8.13877   8.14047   8.14047   8.15897
 Alpha virt. eigenvalues --    8.19483   8.21048   8.21850   8.22118   8.22118
 Alpha virt. eigenvalues --    8.22703   8.22703   8.24011   8.25032   8.25760
 Alpha virt. eigenvalues --    8.26026   8.26026   8.26405   8.26405   8.29276
 Alpha virt. eigenvalues --    8.31322   8.33018   8.34533   8.34533   8.34833
 Alpha virt. eigenvalues --    8.34833   8.38117   8.38117   8.38501   8.38501
 Alpha virt. eigenvalues --    8.43262   8.47354   8.47354   8.48504   8.48504
 Alpha virt. eigenvalues --    8.52957   8.53215   8.53875   8.56136   8.56136
 Alpha virt. eigenvalues --    8.59799   8.59799   8.60441   8.61566   8.61566
 Alpha virt. eigenvalues --    8.61814   8.61814   8.67112   8.68565   8.68565
 Alpha virt. eigenvalues --    8.71543   8.71543   8.73398   8.75845   8.75845
 Alpha virt. eigenvalues --    8.76262   8.77794   8.79409   8.79409   8.84237
 Alpha virt. eigenvalues --    8.87961   8.87961   8.89969   8.91479   8.92860
 Alpha virt. eigenvalues --    8.92860   8.94111   8.94840   8.94840   8.95532
 Alpha virt. eigenvalues --    8.97486   8.97486   8.97754   8.97754   9.00763
 Alpha virt. eigenvalues --    9.04057   9.04057   9.04971   9.04971   9.06595
 Alpha virt. eigenvalues --    9.09839   9.10067   9.10067   9.18635   9.21814
 Alpha virt. eigenvalues --    9.24170   9.24170   9.26852   9.26852   9.30055
 Alpha virt. eigenvalues --    9.32122   9.32691   9.34298   9.34298   9.37605
 Alpha virt. eigenvalues --    9.37605   9.37875   9.42914   9.49223   9.49223
 Alpha virt. eigenvalues --    9.53536   9.53536   9.55938   9.59172   9.59172
 Alpha virt. eigenvalues --    9.62276   9.72767   9.72767   9.74629   9.74825
 Alpha virt. eigenvalues --    9.74825   9.77265   9.77265   9.78978   9.79422
 Alpha virt. eigenvalues --    9.79764   9.83468   9.83468   9.86319   9.86319
 Alpha virt. eigenvalues --    9.91046   9.91046   9.91463   9.91536   9.91536
 Alpha virt. eigenvalues --    9.94790   9.94879   9.96323  10.05416  10.05416
 Alpha virt. eigenvalues --   10.08069  10.17892  10.17892  10.17913  10.18747
 Alpha virt. eigenvalues --   10.19388  10.19388  10.21638  10.21638  10.28212
 Alpha virt. eigenvalues --   10.39659  10.39659  10.47313  10.47313  12.87954
 Alpha virt. eigenvalues --   13.00325  13.00325  13.04999  13.07842  13.07842
 Alpha virt. eigenvalues --   13.22887  13.23252  13.25783  13.25783  13.32018
 Alpha virt. eigenvalues --   13.32018  28.97535  29.04200  29.04200  29.05240
 Alpha virt. eigenvalues --   29.05240  29.06200  29.12972  29.13938  29.19221
 Alpha virt. eigenvalues --   29.19221  29.24607  29.24607 146.55297 146.56216
 Alpha virt. eigenvalues --  146.56216 146.56349 146.56349 146.61557 146.68985
 Alpha virt. eigenvalues --  146.71693 146.73942 146.73942 146.77304 146.77304
          Condensed to atoms (all electrons):
               1          2          3          4          5          6
     1  C    5.933160   0.050652  -0.015450   0.050652  -0.036438   0.314139
     2  C    0.050652   5.933160   0.314139   0.050652   0.293724  -0.015450
     3  H   -0.015450   0.314139   0.342901  -0.015450  -0.058636   0.001108
     4  C    0.050652   0.050652  -0.015450   5.933160  -0.036438  -0.015450
     5  C   -0.036438   0.293724  -0.058636  -0.036438   6.436590  -0.014105
     6  H    0.314139  -0.015450   0.001108  -0.015450  -0.014105   0.342901
     7  C   -0.036438  -0.036438  -0.014105   0.293724  -0.121308  -0.014105
     8  H   -0.015450  -0.015450   0.001108   0.314139  -0.014105   0.001108
     9  H   -0.024499   0.008614   0.000126   0.008614  -0.002755   0.004568
    10  C   -0.032515  -0.032515  -0.001174   0.026089  -0.107019  -0.001174
    11  H    0.008614  -0.024499   0.004568   0.008614   0.269438   0.000126
    12  C   -0.107019   0.116222  -0.013483  -0.107019   0.006550   0.013816
    13  C    0.116222  -0.107019   0.013816  -0.107019   0.054573  -0.013483
    14  C   -0.032515   0.026089   0.001555  -0.032515   0.116222  -0.001174
    15  H    0.008614   0.008614   0.000126  -0.024499  -0.002755   0.000126
    16  C    0.293724  -0.036438  -0.014105  -0.036438  -0.121308  -0.058636
    17  C   -0.107019  -0.107019   0.013816   0.116222   0.054573   0.013816
    18  C    0.026089  -0.032515  -0.001174  -0.032515  -0.107019   0.001555
    19  H   -0.003704  -0.003704   0.003313   0.002902  -0.049984   0.003313
    20  H    0.002902  -0.003704   0.003313  -0.003704  -0.049984   0.000068
    21  H   -0.003704   0.002902   0.000068  -0.003704  -0.003373   0.003313
    22  H    0.001555  -0.001174   0.000163  -0.001174   0.013816   0.000010
    23  H   -0.001174  -0.001174   0.000163   0.001555   0.013816   0.000163
    24  H   -0.001174   0.001555   0.000010  -0.001174  -0.013483   0.000163
               7          8          9         10         11         12
     1  C   -0.036438  -0.015450  -0.024499  -0.032515   0.008614  -0.107019
     2  C   -0.036438  -0.015450   0.008614  -0.032515  -0.024499   0.116222
     3  H   -0.014105   0.001108   0.000126  -0.001174   0.004568  -0.013483
     4  C    0.293724   0.314139   0.008614   0.026089   0.008614  -0.107019
     5  C   -0.121308  -0.014105  -0.002755  -0.107019   0.269438   0.006550
     6  H   -0.014105   0.001108   0.004568  -0.001174   0.000126   0.013816
     7  C    6.436590  -0.058636  -0.002755   0.116222  -0.002755   0.054573
     8  H   -0.058636   0.342901   0.000126   0.001555   0.000126   0.013816
     9  H   -0.002755   0.000126   0.344889  -0.003704   0.000750  -0.049984
    10  C    0.116222   0.001555  -0.003704   5.933160  -0.003704  -0.036438
    11  H   -0.002755   0.000126   0.000750  -0.003704   0.344889  -0.003373
    12  C    0.054573   0.013816  -0.049984  -0.036438  -0.003373   6.436590
    13  C    0.054573   0.013816  -0.003373  -0.036438  -0.049984  -0.121308
    14  C   -0.107019  -0.001174  -0.003704   0.050652   0.002902   0.293724
    15  H    0.269438   0.004568   0.000750   0.002902   0.000750  -0.049984
    16  C   -0.121308  -0.014105   0.269438  -0.107019  -0.002755   0.054573
    17  C    0.006550  -0.013483  -0.049984   0.293724  -0.049984  -0.121308
    18  C   -0.107019  -0.001174   0.002902   0.050652  -0.003704  -0.036438
    19  H   -0.003373   0.000068   0.008387  -0.024499   0.008387  -0.002755
    20  H   -0.049984   0.003313  -0.000026   0.008614   0.008387  -0.002755
    21  H   -0.049984   0.003313   0.008387   0.008614  -0.000026   0.269438
    22  H    0.013816   0.000163   0.000068  -0.015450   0.003313  -0.014105
    23  H   -0.013483   0.000010   0.003313   0.314139   0.003313  -0.014105
    24  H    0.013816   0.000163   0.003313  -0.015450   0.000068  -0.058636
              13         14         15         16         17         18
     1  C    0.116222  -0.032515   0.008614   0.293724  -0.107019   0.026089
     2  C   -0.107019   0.026089   0.008614  -0.036438  -0.107019  -0.032515
     3  H    0.013816   0.001555   0.000126  -0.014105   0.013816  -0.001174
     4  C   -0.107019  -0.032515  -0.024499  -0.036438   0.116222  -0.032515
     5  C    0.054573   0.116222  -0.002755  -0.121308   0.054573  -0.107019
     6  H   -0.013483  -0.001174   0.000126  -0.058636   0.013816   0.001555
     7  C    0.054573  -0.107019   0.269438  -0.121308   0.006550  -0.107019
     8  H    0.013816  -0.001174   0.004568  -0.014105  -0.013483  -0.001174
     9  H   -0.003373  -0.003704   0.000750   0.269438  -0.049984   0.002902
    10  C   -0.036438   0.050652   0.002902  -0.107019   0.293724   0.050652
    11  H   -0.049984   0.002902   0.000750  -0.002755  -0.049984  -0.003704
    12  C   -0.121308   0.293724  -0.049984   0.054573  -0.121308  -0.036438
    13  C    6.436590  -0.036438  -0.049984   0.006550  -0.121308   0.293724
    14  C   -0.036438   5.933160  -0.003704  -0.107019  -0.036438   0.050652
    15  H   -0.049984  -0.003704   0.344889  -0.002755  -0.003373  -0.003704
    16  C    0.006550  -0.107019  -0.002755   6.436590   0.054573   0.116222
    17  C   -0.121308  -0.036438  -0.003373   0.054573   6.436590  -0.036438
    18  C    0.293724   0.050652  -0.003704   0.116222  -0.036438   5.933160
    19  H   -0.002755   0.008614  -0.000026  -0.049984   0.269438   0.008614
    20  H    0.269438   0.008614   0.008387  -0.003373  -0.002755  -0.024499
    21  H   -0.002755  -0.024499   0.008387  -0.049984  -0.002755   0.008614
    22  H   -0.058636  -0.015450   0.003313  -0.013483  -0.014105   0.314139
    23  H   -0.014105  -0.015450   0.000068   0.013816  -0.058636  -0.015450
    24  H   -0.014105   0.314139   0.003313   0.013816  -0.014105  -0.015450
              19         20         21         22         23         24
     1  C   -0.003704   0.002902  -0.003704   0.001555  -0.001174  -0.001174
     2  C   -0.003704  -0.003704   0.002902  -0.001174  -0.001174   0.001555
     3  H    0.003313   0.003313   0.000068   0.000163   0.000163   0.000010
     4  C    0.002902  -0.003704  -0.003704  -0.001174   0.001555  -0.001174
     5  C   -0.049984  -0.049984  -0.003373   0.013816   0.013816  -0.013483
     6  H    0.003313   0.000068   0.003313   0.000010   0.000163   0.000163
     7  C   -0.003373  -0.049984  -0.049984   0.013816  -0.013483   0.013816
     8  H    0.000068   0.003313   0.003313   0.000163   0.000010   0.000163
     9  H    0.008387  -0.000026   0.008387   0.000068   0.003313   0.003313
    10  C   -0.024499   0.008614   0.008614  -0.015450   0.314139  -0.015450
    11  H    0.008387   0.008387  -0.000026   0.003313   0.003313   0.000068
    12  C   -0.002755  -0.002755   0.269438  -0.014105  -0.014105  -0.058636
    13  C   -0.002755   0.269438  -0.002755  -0.058636  -0.014105  -0.014105
    14  C    0.008614   0.008614  -0.024499  -0.015450  -0.015450   0.314139
    15  H   -0.000026   0.008387   0.008387   0.003313   0.000068   0.003313
    16  C   -0.049984  -0.003373  -0.049984  -0.013483   0.013816   0.013816
    17  C    0.269438  -0.002755  -0.002755  -0.014105  -0.058636  -0.014105
    18  C    0.008614  -0.024499   0.008614   0.314139  -0.015450  -0.015450
    19  H    0.344889   0.000750   0.000750   0.000126   0.004568   0.000126
    20  H    0.000750   0.344889   0.000750   0.004568   0.000126   0.000126
    21  H    0.000750   0.000750   0.344889   0.000126   0.000126   0.004568
    22  H    0.000126   0.004568   0.000126   0.342901   0.001108   0.001108
    23  H    0.004568   0.000126   0.000126   0.001108   0.342901   0.001108
    24  H    0.000126   0.000126   0.004568   0.001108   0.001108   0.342901
 Mulliken charges:
               1
     1  C   -0.389226
     2  C   -0.389226
     3  H    0.433284
     4  C   -0.389226
     5  C   -0.520596
     6  H    0.433284
     7  C   -0.520596
     8  H    0.433284
     9  H    0.476538
    10  C   -0.389226
    11  H    0.476538
    12  C   -0.520596
    13  C   -0.520596
    14  C   -0.389226
    15  H    0.476538
    16  C   -0.520596
    17  C   -0.520596
    18  C   -0.389226
    19  H    0.476538
    20  H    0.476538
    21  H    0.476538
    22  H    0.433284
    23  H    0.433284
    24  H    0.433284
 Sum of Mulliken charges =   0.00000
 Mulliken charges with hydrogens summed into heavy atoms:
               1
     1  C    0.044058
     2  C    0.044058
     4  C    0.044058
     5  C   -0.044058
     7  C   -0.044058
    10  C    0.044058
    12  C   -0.044058
    13  C   -0.044058
    14  C    0.044058
    16  C   -0.044058
    17  C   -0.044058
    18  C    0.044058
 Electronic spatial extent (au):  <R**2>=           1262.1738
 Charge=             -0.0000 electrons
 Dipole moment (field-independent basis, Debye):
    X=              0.0000    Y=             -0.0000    Z=             -0.0000  Tot=              0.0000
 Quadrupole moment (field-independent basis, Debye-Ang):
   XX=            -70.0925   YY=            -70.0925   ZZ=            -68.7002
   XY=              0.0000   XZ=              0.0000   YZ=              0.0000
 Traceless Quadrupole moment (field-independent basis, Debye-Ang):
   XX=             -0.4641   YY=             -0.4641   ZZ=              0.9282
   XY=              0.0000   XZ=              0.0000   YZ=              0.0000
 Octapole moment (field-independent basis, Debye-Ang**2):
  XXX=             -0.0000  YYY=              0.0000  ZZZ=              0.0000  XYY=              0.0000
  XXY=             -0.0000  XXZ=              0.0000  XZZ=              0.0000  YZZ=             -0.0000
  YYZ=             -0.0000  XYZ=             -0.0000
 Hexadecapole moment (field-independent basis, Debye-Ang**3):
 XXXX=           -430.9775 YYYY=           -430.9775 ZZZZ=           -840.5359 XXXY=             -0.0000
 XXXZ=             -0.0000 YYYX=             -0.0000 YYYZ=              9.6658 ZZZX=             -0.0000
 ZZZY=              0.0000 XXYY=           -143.6592 XXZZ=           -220.4087 YYZZ=           -220.4087
 XXYZ=             -9.6658 YYXZ=              0.0000 ZZXY=             -0.0000
 N-N= 7.393267186933D+02 E-N=-2.555858067120D+03  KE= 4.622698073599D+02
 PrsmSu:  requested number of processors reduced to:  17 ShMem   1 Linda.
 No NMR shielding tensors so no spin-rotation constants.
 Leave Link  601 at Sun Apr 18 00:59:43 2021, MaxMem=   104857600 cpu:            2700.8 elap:              58.0
 (Enter /s/ls4/users/knvvv/bin/g16sse/l9999.exe)

 Test job not archived.
 1\1\GINC-N178\Stability\RM062X\Gen\C12H12\KNVVV\18-Apr-2021\0\\#P M062
 X/GEN Integral=UltraFineGrid SCF=NoSymm Stable=(RExt, Opt) IOp(1/33=1)
 \\Database calculations.\\0,1\C,0,0.,0.872451,1.793608\C,0,-0.755565,-
 0.436226,1.793608\H,0,-1.32924,-0.767437,2.646866\C,0,0.755565,-0.4362
 26,1.793608\C,0,-1.199689,-0.692641,0.354632\H,0,0.,1.534874,2.646866\
 C,0,1.199689,-0.692641,0.354632\H,0,1.32924,-0.767437,2.646866\H,0,0.,
 2.468788,0.254662\C,0,-0.755565,0.436226,-1.793608\H,0,-2.138033,-1.23
 4394,0.254662\C,0,1.199689,0.692641,-0.354632\C,0,0.,-1.385282,-0.3546
 32\C,0,0.755565,0.436226,-1.793608\H,0,2.138033,-1.234394,0.254662\C,0
 ,0.,1.385282,0.354632\C,0,-1.199689,0.692641,-0.354632\C,0,0.,-0.87245
 1,-1.793608\H,0,-2.138033,1.234394,-0.254662\H,0,0.,-2.468788,-0.25466
 2\H,0,2.138033,1.234394,-0.254662\H,0,0.,-1.534874,-2.646866\H,0,-1.32
 924,0.767437,-2.646866\H,0,1.32924,0.767437,-2.646866\\Version=ES64L-G
 16RevA.03\State=1-A1G\HF=-464.4497767\RMSD=1.557e-09\Dipole=0.,0.,0.\Q
 uadrupole=-0.3450416,-0.3450416,0.6900831,0.,0.,0.\PG=D03D [3SGD(C4H4)
 ]\\@


 REALITY IS FOR PEOPLE WHO CAN'T FACE SCIENCE FICTION.
 Job cpu time:      10 days 20 hours 29 minutes 39.7 seconds.
 Elapsed time:       0 days 14 hours 41 minutes 52.5 seconds.
 File lengths (MBytes):  RWF=   2284 Int=      0 D2E=      0 Chk=    272 Scr=      1
 Normal termination of Gaussian 16 at Sun Apr 18 00:59:44 2021.
