 Entering Gaussian System, Link 0=/s/ls4/users/knvvv/bin/g16sse/g16
 Input=data/database/M062X--def2-QZVPPD--104_alcl_W4-11.gjf
 Output=data/database/M062X--def2-QZVPPD--104_alcl_W4-11.log
 Initial command:
 /s/ls4/users/knvvv/bin/g16sse/l1.exe "/s/ls4/users/knvvv/bin/scratch/Gau-6924.inp" -scrdir="/s/ls4/users/knvvv/bin/scratch/"
 Entering Link 1 = /s/ls4/users/knvvv/bin/g16sse/l1.exe PID=      6925.
  
 Copyright (c) 1988,1990,1992,1993,1995,1998,2003,2009,2016,
            Gaussian, Inc.  All Rights Reserved.
  
 This is part of the Gaussian(R) 16 program.  It is based on
 the Gaussian(R) 09 system (copyright 2009, Gaussian, Inc.),
 the Gaussian(R) 03 system (copyright 2003, Gaussian, Inc.),
 the Gaussian(R) 98 system (copyright 1998, Gaussian, Inc.),
 the Gaussian(R) 94 system (copyright 1995, Gaussian, Inc.),
 the Gaussian 92(TM) system (copyright 1992, Gaussian, Inc.),
 the Gaussian 90(TM) system (copyright 1990, Gaussian, Inc.),
 the Gaussian 88(TM) system (copyright 1988, Gaussian, Inc.),
 the Gaussian 86(TM) system (copyright 1986, Carnegie Mellon
 University), and the Gaussian 82(TM) system (copyright 1983,
 Carnegie Mellon University). Gaussian is a federally registered
 trademark of Gaussian, Inc.
  
 This software contains proprietary and confidential information,
 including trade secrets, belonging to Gaussian, Inc.
  
 This software is provided under written license and may be
 used, copied, transmitted, or stored only in accord with that
 written license.
  
 The following legend is applicable only to US Government
 contracts under FAR:
  
                    RESTRICTED RIGHTS LEGEND
  
 Use, reproduction and disclosure by the US Government is
 subject to restrictions as set forth in subparagraphs (a)
 and (c) of the Commercial Computer Software - Restricted
 Rights clause in FAR 52.227-19.
  
 Gaussian, Inc.
 340 Quinnipiac St., Bldg. 40, Wallingford CT 06492
  
  
 ---------------------------------------------------------------
 Warning -- This program may not be used in any manner that
 competes with the business of Gaussian, Inc. or will provide
 assistance to any competitor of Gaussian, Inc.  The licensee
 of this program is prohibited from giving any competitor of
 Gaussian, Inc. access to this program.  By using this program,
 the user acknowledges that Gaussian, Inc. is engaged in the
 business of creating and licensing software in the field of
 computational chemistry and represents and warrants to the
 licensee that it is not a competitor of Gaussian, Inc. and that
 it will not use this program in any manner prohibited above.
 ---------------------------------------------------------------
  

 Cite this work as:
 Gaussian 16, Revision A.03,
 M. J. Frisch, G. W. Trucks, H. B. Schlegel, G. E. Scuseria, 
 M. A. Robb, J. R. Cheeseman, G. Scalmani, V. Barone, 
 G. A. Petersson, H. Nakatsuji, X. Li, M. Caricato, A. V. Marenich, 
 J. Bloino, B. G. Janesko, R. Gomperts, B. Mennucci, H. P. Hratchian, 
 J. V. Ortiz, A. F. Izmaylov, J. L. Sonnenberg, D. Williams-Young, 
 F. Ding, F. Lipparini, F. Egidi, J. Goings, B. Peng, A. Petrone, 
 T. Henderson, D. Ranasinghe, V. G. Zakrzewski, J. Gao, N. Rega, 
 G. Zheng, W. Liang, M. Hada, M. Ehara, K. Toyota, R. Fukuda, 
 J. Hasegawa, M. Ishida, T. Nakajima, Y. Honda, O. Kitao, H. Nakai, 
 T. Vreven, K. Throssell, J. A. Montgomery, Jr., J. E. Peralta, 
 F. Ogliaro, M. J. Bearpark, J. J. Heyd, E. N. Brothers, K. N. Kudin, 
 V. N. Staroverov, T. A. Keith, R. Kobayashi, J. Normand, 
 K. Raghavachari, A. P. Rendell, J. C. Burant, S. S. Iyengar, 
 J. Tomasi, M. Cossi, J. M. Millam, M. Klene, C. Adamo, R. Cammi, 
 J. W. Ochterski, R. L. Martin, K. Morokuma, O. Farkas, 
 J. B. Foresman, and D. J. Fox, Gaussian, Inc., Wallingford CT, 2016.
 
 ******************************************
 Gaussian 16:  ES64L-G16RevA.03 25-Dec-2016
                17-Apr-2021 
 ******************************************
 %RWF=temp10_99072,70GB
 %nprocshared=48
 Will use up to   48 processors via shared memory.
 Default route: MaxDisk=80GB
 ----------------------------------------------------------------------
 #P M062X/GEN Integral=UltraFineGrid SCF=NoSymm Stable=(RExt, Opt) IOp(
 1/33=1)
 ----------------------------------------------------------------------
 1/33=1,38=1,172=1/1;
 2/12=2,17=6,18=5,40=1/2;
 3/5=7,11=2,25=1,30=1,74=-55,75=-5/1,2,3;
 4/9=2/1;
 5/5=2,38=5/2;
 6/7=2,8=2,9=2,10=2,28=1/1;
 8/6=1,10=90,11=11/1;
 9/8=-3,42=1,46=1/14;
 5/5=2,8=3,17=40,38=5/8(-2);
 6/7=2,8=2,9=2,10=2,28=1/1;
 99/5=1,9=1/99;
 Leave Link    1 at Sat Apr 17 06:04:34 2021, MaxMem=           0 cpu:              11.1 elap:               0.3
 (Enter /s/ls4/users/knvvv/bin/g16sse/l101.exe)
 ONIOM data not found on unit 2.
 ----------------------
 Database calculations.
 ----------------------
 TstMul:  ICh=     0
 TstMul:  Mul=     1
 TstMul:  ICh=     0
 TstMul:  Mul=     1
 Symbolic Z-matrix:
 Charge =  0 Multiplicity = 1
 Al                    0.        0.        0. 
 Cl                    0.        0.        2.14101 
 
 RdStrC is calling ZToCFu for IStruc=1 NZ=     2.
 PrtBox:  NBox=     1 Levels=  1 BoxLen=    8.00 SMaxX=        4.05
          Shift=            0.000000            0.000000            0.000000
 Box      1 Number                   0 centers from      1 to      2:
 After GenITR:
 ITRead=  0  0
 MicOpt= -1 -1
 ITRead=  0  0
 MicOpt= -1 -1
 NAtoms=      2 NQM=        2 NQMF=       0 NMMI=      0 NMMIF=      0
                NMic=       0 NMicF=      0.
                    Isotopes and Nuclear Properties:
 (Nuclear quadrupole moments (NQMom) in fm**2, nuclear magnetic moments (NMagM)
  in nuclear magnetons)

  Atom         1           2
 IAtWgt=          27          35
 AtmWgt=  26.9815413  34.9688527
 NucSpn=           5           3
 AtZEff=  -0.0000000  -0.0000000
 NQMom=   14.6600000  -8.1650000
 NMagM=    3.6415040   0.8218740
 AtZNuc=  13.0000000  17.0000000
 No MM parameters found.
 Leave Link  101 at Sat Apr 17 06:04:34 2021, MaxMem=   104857600 cpu:               9.0 elap:               0.2
 (Enter /s/ls4/users/knvvv/bin/g16sse/l202.exe)
                          Input orientation:                          
 ---------------------------------------------------------------------
 Center     Atomic      Atomic             Coordinates (Angstroms)
 Number     Number       Type             X           Y           Z
 ---------------------------------------------------------------------
      1         13           0        0.000000    0.000000    0.000000
      2         17           0        0.000000    0.000000    2.141014
 ---------------------------------------------------------------------
 Stoichiometry    AlCl
 Framework group  C*V[C*(AlCl)]
 Deg. of freedom     1
 Full point group                 C*V     NOp   4
 Largest Abelian subgroup         C2V     NOp   4
 Largest concise Abelian subgroup C1      NOp   1
                         Standard orientation:                         
 ---------------------------------------------------------------------
 Center     Atomic      Atomic             Coordinates (Angstroms)
 Number     Number       Type             X           Y           Z
 ---------------------------------------------------------------------
      1         13           0        0.000000    0.000000   -1.213241
      2         17           0        0.000000    0.000000    0.927773
 ---------------------------------------------------------------------
 Rotational constants (GHZ):           0.0000000           7.2389239           7.2389239
 Leave Link  202 at Sat Apr 17 06:04:34 2021, MaxMem=   104857600 cpu:              10.6 elap:               0.3
 (Enter /s/ls4/users/knvvv/bin/g16sse/l301.exe)
 General basis read from cards:  (5D, 7F)
 Centers:       1
 S 10 1.00
     Exponent=  7.5455078265D+05 Coefficients=  1.3421335886D-05
     Exponent=  1.1299938922D+05 Coefficients=  1.0433210786D-04
     Exponent=  2.5715831759D+04 Coefficients=  5.4841772080D-04
     Exponent=  7.2836030283D+03 Coefficients=  2.3089081391D-03
     Exponent=  2.3760008796D+03 Coefficients=  8.3309974593D-03
     Exponent=  8.5765468087D+02 Coefficients=  2.6417963653D-02
     Exponent=  3.3438922598D+02 Coefficients=  7.3443646426D-02
     Exponent=  1.3848504731D+02 Coefficients=  1.7184039139D-01
     Exponent=  6.0150368808D+01 Coefficients=  3.1041980030D-01
     Exponent=  2.7127610860D+01 Coefficients=  3.5669190596D-01
 S 3 1.00
     Exponent=  2.2536500065D+02 Coefficients=  2.1522039783D-02
     Exponent=  6.9341968124D+01 Coefficients=  1.8531780493D-01
     Exponent=  2.6619335712D+01 Coefficients=  6.3533181245D-01
 S 1 1.00
     Exponent=  1.2349420671D+01 Coefficients=  1.0000000000D+00
 S 1 1.00
     Exponent=  4.5878785994D+00 Coefficients=  1.0000000000D+00
 S 1 1.00
     Exponent=  2.0571338103D+00 Coefficients=  1.0000000000D+00
 S 1 1.00
     Exponent=  9.0864549395D-01 Coefficients=  1.0000000000D+00
 S 1 1.00
     Exponent=  2.4226988038D-01 Coefficients=  1.0000000000D+00
 S 1 1.00
     Exponent=  1.1248136869D-01 Coefficients=  1.0000000000D+00
 S 1 1.00
     Exponent=  4.8156492817D-02 Coefficients=  1.0000000000D+00
 S 1 1.00
     Exponent=  2.1134849794D-02 Coefficients=  1.0000000000D+00
 P 8 1.00
     Exponent=  1.4896119522D+03 Coefficients=  2.0177122443D-04
     Exponent=  3.5301399267D+02 Coefficients=  1.7508109203D-03
     Exponent=  1.1440764069D+02 Coefficients=  9.4424704664D-03
     Exponent=  4.3312186111D+01 Coefficients=  3.6868004006D-02
     Exponent=  1.8027322216D+01 Coefficients=  1.0892874007D-01
     Exponent=  7.9675432403D+00 Coefficients=  2.3265901004D-01
     Exponent=  3.6090399541D+00 Coefficients=  3.4643587076D-01
     Exponent=  1.6456081630D+00 Coefficients=  3.3440809866D-01
 P 2 1.00
     Exponent=  3.4731187489D+01 Coefficients=  1.7823073020D-02
     Exponent=  1.2553083630D+00 Coefficients= -5.9991263926D-01
 P 1 1.00
     Exponent=  7.3635534282D-01 Coefficients=  1.0000000000D+00
 P 1 1.00
     Exponent=  2.4686465559D-01 Coefficients=  1.0000000000D+00
 P 1 1.00
     Exponent=  9.4821971828D-02 Coefficients=  1.0000000000D+00
 P 1 1.00
     Exponent=  3.6214165654D-02 Coefficients=  1.0000000000D+00
 D 1 1.00
     Exponent=  1.9700000000D+00 Coefficients=  1.0000000000D+00
 D 1 1.00
     Exponent=  4.3700000000D-01 Coefficients=  1.0000000000D+00
 D 1 1.00
     Exponent=  1.9500000000D-01 Coefficients=  1.0000000000D+00
 D 1 1.00
     Exponent=  8.0000000000D-02 Coefficients=  1.0000000000D+00
 D 1 1.00
     Exponent=  3.0664004967D-02 Coefficients=  1.0000000000D+00
 F 1 1.00
     Exponent=  4.0100000000D-01 Coefficients=  1.0000000000D+00
 F 1 1.00
     Exponent=  1.5400000000D-01 Coefficients=  1.0000000000D+00
 G 1 1.00
     Exponent=  3.5700000000D-01 Coefficients=  1.0000000000D+00
 ****
 Centers:       2
 S 10 1.00
     Exponent=  1.4674590095D+06 Coefficients=  1.1478257194D-05
     Exponent=  2.1975616433D+05 Coefficients=  8.9234299775D-05
     Exponent=  5.0010770301D+04 Coefficients=  4.6911086186D-04
     Exponent=  1.4164823918D+04 Coefficients=  1.9762446133D-03
     Exponent=  4.6207465525D+03 Coefficients=  7.1419937783D-03
     Exponent=  1.6678991635D+03 Coefficients=  2.2753219445D-02
     Exponent=  6.5029199265D+02 Coefficients=  6.3959782953D-02
     Exponent=  2.6938037376D+02 Coefficients=  1.5331059238D-01
     Exponent=  1.1706752106D+02 Coefficients=  2.8986952417D-01
     Exponent=  5.2811766843D+01 Coefficients=  3.6348071452D-01
 S 3 1.00
     Exponent=  4.6142769988D+02 Coefficients=  1.8019457578D-02
     Exponent=  1.4212665355D+02 Coefficients=  1.6489442314D-01
     Exponent=  5.4437838768D+01 Coefficients=  6.3891587584D-01
 S 1 1.00
     Exponent=  2.4160770219D+01 Coefficients=  1.0000000000D+00
 S 1 1.00
     Exponent=  9.7083540306D+00 Coefficients=  1.0000000000D+00
 S 1 1.00
     Exponent=  4.5640696733D+00 Coefficients=  1.0000000000D+00
 S 1 1.00
     Exponent=  2.1194744832D+00 Coefficients=  1.0000000000D+00
 S 1 1.00
     Exponent=  7.5722365394D-01 Coefficients=  1.0000000000D+00
 S 1 1.00
     Exponent=  3.3747224597D-01 Coefficients=  1.0000000000D+00
 S 1 1.00
     Exponent=  1.3860775149D-01 Coefficients=  1.0000000000D+00
 S 1 1.00
     Exponent=  5.4234565513D-02 Coefficients=  1.0000000000D+00
 P 8 1.00
     Exponent=  2.5019457890D+03 Coefficients=  2.4242618410D-04
     Exponent=  5.9288059285D+02 Coefficients=  2.1079961749D-03
     Exponent=  1.9218089186D+02 Coefficients=  1.1432693869D-02
     Exponent=  7.2875710488D+01 Coefficients=  4.4956698060D-02
     Exponent=  3.0436358370D+01 Coefficients=  1.3197476145D-01
     Exponent=  1.3490178902D+01 Coefficients=  2.7493639225D-01
     Exponent=  6.1478071413D+00 Coefficients=  3.8347236372D-01
     Exponent=  2.8450944820D+00 Coefficients=  2.8871943885D-01
 P 2 1.00
     Exponent=  1.0539397936D+02 Coefficients= -3.4311760144D-02
     Exponent=  6.7369738513D+00 Coefficients=  6.4060818902D-01
 P 1 1.00
     Exponent=  1.2421095772D+00 Coefficients=  1.0000000000D+00
 P 1 1.00
     Exponent=  5.5669714254D-01 Coefficients=  1.0000000000D+00
 P 1 1.00
     Exponent=  2.3387801464D-01 Coefficients=  1.0000000000D+00
 P 1 1.00
     Exponent=  9.3164490890D-02 Coefficients=  1.0000000000D+00
 P 1 1.00
     Exponent=  2.7256146018D-02 Coefficients=  1.0000000000D+00
 D 1 1.00
     Exponent=  5.1910000000D+00 Coefficients=  1.0000000000D+00
 D 1 1.00
     Exponent=  1.2760000000D+00 Coefficients=  1.0000000000D+00
 D 1 1.00
     Exponent=  5.8300000000D-01 Coefficients=  1.0000000000D+00
 D 1 1.00
     Exponent=  2.4300000000D-01 Coefficients=  1.0000000000D+00
 D 1 1.00
     Exponent=  8.3456538402D-02 Coefficients=  1.0000000000D+00
 F 1 1.00
     Exponent=  1.0890000000D+00 Coefficients=  1.0000000000D+00
 F 1 1.00
     Exponent=  4.2300000000D-01 Coefficients=  1.0000000000D+00
 G 1 1.00
     Exponent=  8.2700000000D-01 Coefficients=  1.0000000000D+00
 ****
 Ernie: Thresh=  0.10000D-02 Tol=  0.10000D-05 Strict=F.
 There are    87 symmetry adapted cartesian basis functions of A1  symmetry.
 There are    20 symmetry adapted cartesian basis functions of A2  symmetry.
 There are    41 symmetry adapted cartesian basis functions of B1  symmetry.
 There are    41 symmetry adapted cartesian basis functions of B2  symmetry.
 There are    67 symmetry adapted basis functions of A1  symmetry.
 There are    18 symmetry adapted basis functions of A2  symmetry.
 There are    35 symmetry adapted basis functions of B1  symmetry.
 There are    35 symmetry adapted basis functions of B2  symmetry.
   155 basis functions,   259 primitive gaussians,   189 cartesian basis functions
    15 alpha electrons       15 beta electrons
       nuclear repulsion energy        54.6227856825 Hartrees.
 IExCor= 4336 DFT=T Ex+Corr=M062X ExCW=0 ScaHFX=  0.540000
 ScaDFX=  1.000000  1.000000  1.000000  1.000000 ScalE2=  1.000000  1.000000
 IRadAn=      5 IRanWt=     -1 IRanGd=            0 ICorTp=0 IEmpDi=  4
 NAtoms=    2 NActive=    2 NUniq=    2 SFac= 1.00D+00 NAtFMM=   60 NAOKFM=F Big=F
 Integral buffers will be    131072 words long.
 Raffenetti 2 integral format.
 Two-electron integral symmetry is turned on.
 Leave Link  301 at Sat Apr 17 06:04:34 2021, MaxMem=   104857600 cpu:              11.2 elap:               0.4
 (Enter /s/ls4/users/knvvv/bin/g16sse/l302.exe)
 NPDir=0 NMtPBC=     1 NCelOv=     1 NCel=       1 NClECP=     1 NCelD=      1
         NCelK=      1 NCelE2=     1 NClLst=     1 CellRange=     0.0.
 One-electron integrals computed using PRISM.
 One-electron integral symmetry used in STVInt
 PrsmSu:  requested number of processors reduced to:   4 ShMem   1 Linda.
 PrsmSu:  requested number of processors reduced to:  21 ShMem   1 Linda.
 NBasis=   155 RedAO= T EigKep=  1.32D-04  NBF=    67    18    35    35
 NBsUse=   155 1.00D-06 EigRej= -1.00D+00 NBFU=    67    18    35    35
 Precomputing XC quadrature grid using
 IXCGrd= 4 IRadAn=           5 IRanWt=          -1 IRanGd=           0 AccXCQ= 0.00D+00.
 Generated NRdTot=       0 NPtTot=           0 NUsed=           0 NTot=          32
 NSgBfM=   186   185   185   186   186 MxSgAt=     2 MxSgA2=     2.
 Leave Link  302 at Sat Apr 17 06:04:39 2021, MaxMem=   104857600 cpu:             209.5 elap:               4.6
 (Enter /s/ls4/users/knvvv/bin/g16sse/l303.exe)
 DipDrv:  MaxL=1.
 Leave Link  303 at Sat Apr 17 06:04:39 2021, MaxMem=   104857600 cpu:               9.6 elap:               0.3
 (Enter /s/ls4/users/knvvv/bin/g16sse/l401.exe)
 SCF N**3 symmetry information disabled.
 ExpMin= 2.11D-02 ExpMax= 1.47D+06 ExpMxC= 1.67D+03 IAcc=3 IRadAn=         5 AccDes= 0.00D+00
 Harris functional with IExCor= 1009 and IRadAn=       5 diagonalized for initial guess.
 HarFok:  IExCor= 1009 AccDes= 0.00D+00 IRadAn=         5 IDoV= 1 UseB2=F ITyADJ=14
 ICtDFT=  3500011 ScaDFX=  1.000000  1.000000  1.000000  1.000000
 FoFCou: FMM=F IPFlag=           0 FMFlag=      100000 FMFlg1=           0
         NFxFlg=           0 DoJE=T BraDBF=F KetDBF=T FulRan=T
         wScrn=  0.000000 ICntrl=       500 IOpCl=  0 I1Cent=   200000004 NGrid=           0
         NMat0=    1 NMatS0=      1 NMatT0=    0 NMatD0=    1 NMtDS0=    0 NMtDT0=    0
 Petite list used in FoFCou.
 CoulSu:  requested number of processors reduced to:  21 ShMem   1 Linda.
 CoulSu:  requested number of processors reduced to:  21 ShMem   1 Linda.
 CoulSu:  requested number of processors reduced to:  21 ShMem   1 Linda.
 CoulSu:  requested number of processors reduced to:  21 ShMem   1 Linda.
 Harris En= -702.297299500957    
 JPrj=0 DoOrth=F DoCkMO=F.
 Initial guess orbital symmetries:
       Occupied  (SG) (SG) (SG) (SG) (PI) (PI) (SG) (SG) (PI) (PI)
                 (SG) (SG) (PI) (PI) (SG)
       Virtual   (PI) (PI) (SG) (SG) (PI) (PI) (SG) (DLTA) (DLTA)
                 (PI) (PI) (SG) (SG) (PI) (PI) (SG) (DLTA) (DLTA)
                 (PI) (PI) (SG) (DLTA) (DLTA) (SG) (PI) (PI) (SG)
                 (PI) (PI) (SG) (PI) (PI) (DLTA) (DLTA) (PHI) (PHI)
                 (SG) (DLTA) (DLTA) (PI) (PI) (DLTA) (DLTA) (SG)
                 (PI) (PI) (SG) (SG) (SG) (PI) (PI) (SG) (PI) (PI)
                 (SG) (PHI) (PHI) (PI) (PI) (DLTA) (DLTA) (DLTA)
                 (DLTA) (DLTA) (DLTA) (PI) (PI) (SG) (SG) (PI)
                 (PI) (PHI) (PHI) (?A) (?A) (DLTA) (DLTA) (PHI)
                 (PHI) (SG) (PI) (PI) (SG) (DLTA) (DLTA) (PI) (PI)
                 (SG) (SG) (PI) (PI) (SG) (SG) (DLTA) (DLTA) (PI)
                 (PI) (SG) (?A) (?A) (PHI) (PHI) (DLTA) (DLTA)
                 (PI) (PI) (SG) (PHI) (PHI) (PI) (PI) (DLTA) (DLTA)
                 (SG) (PI) (PI) (DLTA) (DLTA) (PI) (PI) (SG) (SG)
                 (PI) (PI) (SG) (SG) (DLTA) (DLTA) (PI) (PI) (SG)
                 (SG) (SG) (PI) (PI) (SG) (SG) (SG) (SG) (SG)
 The electronic state of the initial guess is 1-SG.
 Leave Link  401 at Sat Apr 17 06:04:43 2021, MaxMem=   104857600 cpu:             136.5 elap:               3.2
 (Enter /s/ls4/users/knvvv/bin/g16sse/l502.exe)
 Integral symmetry usage will be decided dynamically.
 Closed shell SCF:
 Using DIIS extrapolation, IDIIS=  1040.
 NGot=   104857600 LenX=   104774347 LenY=   104738185
 Requested convergence on RMS density matrix=1.00D-08 within 128 cycles.
 Requested convergence on MAX density matrix=1.00D-06.
 Requested convergence on             energy=1.00D-06.
 No special actions if energy rises.
 Fock matrices will be formed incrementally for  20 cycles.

 Cycle   1  Pass 1  IDiag  1:
 FoFJK:  IHMeth= 1 ICntrl=       0 DoSepK=F KAlg= 0 I1Cent=           0 FoldK=F
 IRaf= 980000000 NMat=       1 IRICut=       1 DoRegI=T DoRafI=F ISym2E= 1 IDoP0=0 IntGTp=1.
 FoFCou: FMM=F IPFlag=           0 FMFlag=      100000 FMFlg1=           0
         NFxFlg=           0 DoJE=F BraDBF=F KetDBF=F FulRan=T
         wScrn=  0.000000 ICntrl=         0 IOpCl=  0 I1Cent=           0 NGrid=           0
         NMat0=    1 NMatS0=      1 NMatT0=    0 NMatD0=    1 NMtDS0=    0 NMtDT0=    0
 Petite list used in FoFCou.
 CoulSu:  requested number of processors reduced to:  21 ShMem   1 Linda.
 E= -702.682479389544    
 DIIS: error= 2.94D-02 at cycle   1 NSaved=   1.
 NSaved= 1 IEnMin= 1 EnMin= -702.682479389544     IErMin= 1 ErrMin= 2.94D-02
 ErrMax= 2.94D-02  0.00D+00 EMaxC= 1.00D-01 BMatC= 8.95D-02 BMatP= 8.95D-02
 IDIUse=3 WtCom= 7.06D-01 WtEn= 2.94D-01
 Coeff-Com:  0.100D+01
 Coeff-En:   0.100D+01
 Coeff:      0.100D+01
 Gap=     0.257 Goal=   None    Shift=    0.000
 GapD=    0.257 DampG=1.000 DampE=0.500 DampFc=0.5000 IDamp=-1.
 Damping current iteration by 5.00D-01
 RMSDP=2.06D-03 MaxDP=1.57D-01              OVMax= 4.25D-02

 Cycle   2  Pass 1  IDiag  1:
 RMSU=  1.03D-03    CP:  9.97D-01
 CoulSu:  requested number of processors reduced to:  21 ShMem   1 Linda.
 E= -702.689265219264     Delta-E=       -0.006785829721 Rises=F Damp=T
 DIIS: error= 1.49D-02 at cycle   2 NSaved=   2.
 NSaved= 2 IEnMin= 2 EnMin= -702.689265219264     IErMin= 2 ErrMin= 1.49D-02
 ErrMax= 1.49D-02  0.00D+00 EMaxC= 1.00D-01 BMatC= 1.79D-02 BMatP= 8.95D-02
 IDIUse=3 WtCom= 8.51D-01 WtEn= 1.49D-01
 Coeff-Com: -0.718D+00 0.172D+01
 Coeff-En:   0.000D+00 0.100D+01
 Coeff:     -0.611D+00 0.161D+01
 Gap=     0.256 Goal=   None    Shift=    0.000
 RMSDP=8.84D-04 MaxDP=6.38D-02 DE=-6.79D-03 OVMax= 1.38D-02

 Cycle   3  Pass 1  IDiag  1:
 RMSU=  2.39D-04    CP:  9.93D-01  1.83D+00
 CoulSu:  requested number of processors reduced to:  21 ShMem   1 Linda.
 E= -702.695326817260     Delta-E=       -0.006061597995 Rises=F Damp=F
 DIIS: error= 1.39D-03 at cycle   3 NSaved=   3.
 NSaved= 3 IEnMin= 3 EnMin= -702.695326817260     IErMin= 3 ErrMin= 1.39D-03
 ErrMax= 1.39D-03  0.00D+00 EMaxC= 1.00D-01 BMatC= 3.07D-04 BMatP= 1.79D-02
 IDIUse=3 WtCom= 9.86D-01 WtEn= 1.39D-02
 Coeff-Com: -0.153D+00 0.332D+00 0.821D+00
 Coeff-En:   0.000D+00 0.000D+00 0.100D+01
 Coeff:     -0.151D+00 0.327D+00 0.824D+00
 Gap=     0.255 Goal=   None    Shift=    0.000
 RMSDP=1.08D-04 MaxDP=4.53D-03 DE=-6.06D-03 OVMax= 5.38D-03

 Cycle   4  Pass 1  IDiag  1:
 RMSU=  6.22D-05    CP:  9.92D-01  1.89D+00  7.60D-01
 CoulSu:  requested number of processors reduced to:  21 ShMem   1 Linda.
 E= -702.695451787746     Delta-E=       -0.000124970486 Rises=F Damp=F
 DIIS: error= 5.24D-04 at cycle   4 NSaved=   4.
 NSaved= 4 IEnMin= 4 EnMin= -702.695451787746     IErMin= 4 ErrMin= 5.24D-04
 ErrMax= 5.24D-04  0.00D+00 EMaxC= 1.00D-01 BMatC= 4.76D-05 BMatP= 3.07D-04
 IDIUse=3 WtCom= 9.95D-01 WtEn= 5.24D-03
 Coeff-Com: -0.384D-01 0.746D-01 0.299D+00 0.665D+00
 Coeff-En:   0.000D+00 0.000D+00 0.575D-01 0.943D+00
 Coeff:     -0.382D-01 0.742D-01 0.297D+00 0.667D+00
 Gap=     0.255 Goal=   None    Shift=    0.000
 RMSDP=3.11D-05 MaxDP=1.01D-03 DE=-1.25D-04 OVMax= 2.58D-03

 Cycle   5  Pass 1  IDiag  1:
 RMSU=  1.68D-05    CP:  9.92D-01  1.89D+00  8.39D-01  7.23D-01
 CoulSu:  requested number of processors reduced to:  21 ShMem   1 Linda.
 E= -702.695483437606     Delta-E=       -0.000031649861 Rises=F Damp=F
 DIIS: error= 1.11D-04 at cycle   5 NSaved=   5.
 NSaved= 5 IEnMin= 5 EnMin= -702.695483437606     IErMin= 5 ErrMin= 1.11D-04
 ErrMax= 1.11D-04  0.00D+00 EMaxC= 1.00D-01 BMatC= 1.53D-06 BMatP= 4.76D-05
 IDIUse=3 WtCom= 9.99D-01 WtEn= 1.11D-03
 Coeff-Com: -0.493D-02 0.902D-02 0.424D-01 0.202D+00 0.751D+00
 Coeff-En:   0.000D+00 0.000D+00 0.000D+00 0.000D+00 0.100D+01
 Coeff:     -0.493D-02 0.901D-02 0.423D-01 0.202D+00 0.752D+00
 Gap=     0.255 Goal=   None    Shift=    0.000
 RMSDP=9.16D-06 MaxDP=4.30D-04 DE=-3.16D-05 OVMax= 4.74D-04

 Cycle   6  Pass 1  IDiag  1:
 RMSU=  3.13D-06    CP:  9.92D-01  1.89D+00  8.24D-01  7.99D-01  1.07D+00
 CoulSu:  requested number of processors reduced to:  21 ShMem   1 Linda.
 E= -702.695484969220     Delta-E=       -0.000001531614 Rises=F Damp=F
 DIIS: error= 1.66D-05 at cycle   6 NSaved=   6.
 NSaved= 6 IEnMin= 6 EnMin= -702.695484969220     IErMin= 6 ErrMin= 1.66D-05
 ErrMax= 1.66D-05  0.00D+00 EMaxC= 1.00D-01 BMatC= 2.36D-08 BMatP= 1.53D-06
 IDIUse=1 WtCom= 1.00D+00 WtEn= 0.00D+00
 Coeff-Com:  0.220D-02-0.429D-02-0.209D-01-0.530D-01-0.397D-01 0.112D+01
 Coeff:      0.220D-02-0.429D-02-0.209D-01-0.530D-01-0.397D-01 0.112D+01
 Gap=     0.255 Goal=   None    Shift=    0.000
 RMSDP=3.83D-06 MaxDP=2.44D-04 DE=-1.53D-06 OVMax= 1.66D-04

 Cycle   7  Pass 1  IDiag  1:
 RMSU=  7.99D-07    CP:  9.92D-01  1.90D+00  8.23D-01  8.11D-01  1.21D+00
                    CP:  1.34D+00
 CoulSu:  requested number of processors reduced to:  21 ShMem   1 Linda.
 E= -702.695485034039     Delta-E=       -0.000000064819 Rises=F Damp=F
 DIIS: error= 6.27D-06 at cycle   7 NSaved=   7.
 NSaved= 7 IEnMin= 7 EnMin= -702.695485034039     IErMin= 7 ErrMin= 6.27D-06
 ErrMax= 6.27D-06  0.00D+00 EMaxC= 1.00D-01 BMatC= 3.18D-09 BMatP= 2.36D-08
 IDIUse=1 WtCom= 1.00D+00 WtEn= 0.00D+00
 Coeff-Com:  0.774D-03-0.150D-02-0.712D-02-0.224D-01-0.505D-01 0.304D+00
 Coeff-Com:  0.776D+00
 Coeff:      0.774D-03-0.150D-02-0.712D-02-0.224D-01-0.505D-01 0.304D+00
 Coeff:      0.776D+00
 Gap=     0.255 Goal=   None    Shift=    0.000
 RMSDP=4.96D-07 MaxDP=3.38D-05 DE=-6.48D-08 OVMax= 2.14D-05

 Cycle   8  Pass 1  IDiag  1:
 RMSU=  1.92D-07    CP:  9.92D-01  1.90D+00  8.22D-01  8.12D-01  1.23D+00
                    CP:  1.40D+00  1.01D+00
 CoulSu:  requested number of processors reduced to:  21 ShMem   1 Linda.
 E= -702.695485036866     Delta-E=       -0.000000002826 Rises=F Damp=F
 DIIS: error= 9.01D-07 at cycle   8 NSaved=   8.
 NSaved= 8 IEnMin= 8 EnMin= -702.695485036866     IErMin= 8 ErrMin= 9.01D-07
 ErrMax= 9.01D-07  0.00D+00 EMaxC= 1.00D-01 BMatC= 1.67D-10 BMatP= 3.18D-09
 IDIUse=1 WtCom= 1.00D+00 WtEn= 0.00D+00
 Coeff-Com: -0.747D-04 0.147D-03 0.919D-03 0.238D-02-0.511D-02-0.485D-01
 Coeff-Com:  0.134D+00 0.917D+00
 Coeff:     -0.747D-04 0.147D-03 0.919D-03 0.238D-02-0.511D-02-0.485D-01
 Coeff:      0.134D+00 0.917D+00
 Gap=     0.255 Goal=   None    Shift=    0.000
 RMSDP=1.15D-07 MaxDP=8.59D-06 DE=-2.83D-09 OVMax= 7.94D-06

 Cycle   9  Pass 1  IDiag  1:
 RMSU=  4.52D-08    CP:  9.92D-01  1.90D+00  8.22D-01  8.12D-01  1.23D+00
                    CP:  1.41D+00  1.09D+00  1.06D+00
 CoulSu:  requested number of processors reduced to:  21 ShMem   1 Linda.
 E= -702.695485037041     Delta-E=       -0.000000000175 Rises=F Damp=F
 DIIS: error= 8.92D-08 at cycle   9 NSaved=   9.
 NSaved= 9 IEnMin= 9 EnMin= -702.695485037041     IErMin= 9 ErrMin= 8.92D-08
 ErrMax= 8.92D-08  0.00D+00 EMaxC= 1.00D-01 BMatC= 1.29D-12 BMatP= 1.67D-10
 IDIUse=1 WtCom= 1.00D+00 WtEn= 0.00D+00
 Coeff-Com:  0.193D-05-0.369D-05-0.912D-04-0.210D-03 0.141D-02 0.564D-02
 Coeff-Com: -0.379D-01-0.205D+00 0.124D+01
 Coeff:      0.193D-05-0.369D-05-0.912D-04-0.210D-03 0.141D-02 0.564D-02
 Coeff:     -0.379D-01-0.205D+00 0.124D+01
 Gap=     0.255 Goal=   None    Shift=    0.000
 RMSDP=2.10D-08 MaxDP=1.44D-06 DE=-1.75D-10 OVMax= 1.33D-06

 Cycle  10  Pass 1  IDiag  1:
 RMSU=  6.96D-09    CP:  9.92D-01  1.90D+00  8.22D-01  8.12D-01  1.23D+00
                    CP:  1.41D+00  1.10D+00  1.10D+00  1.36D+00
 CoulSu:  requested number of processors reduced to:  21 ShMem   1 Linda.
 E= -702.695485037048     Delta-E=       -0.000000000007 Rises=F Damp=F
 DIIS: error= 2.41D-08 at cycle  10 NSaved=  10.
 NSaved=10 IEnMin=10 EnMin= -702.695485037048     IErMin=10 ErrMin= 2.41D-08
 ErrMax= 2.41D-08  0.00D+00 EMaxC= 1.00D-01 BMatC= 4.11D-14 BMatP= 1.29D-12
 IDIUse=1 WtCom= 1.00D+00 WtEn= 0.00D+00
 Coeff-Com:  0.156D-05-0.307D-05-0.184D-04-0.389D-04 0.622D-04 0.129D-02
 Coeff-Com: -0.321D-02-0.854D-02-0.753D-01 0.109D+01
 Coeff:      0.156D-05-0.307D-05-0.184D-04-0.389D-04 0.622D-04 0.129D-02
 Coeff:     -0.321D-02-0.854D-02-0.753D-01 0.109D+01
 Gap=     0.255 Goal=   None    Shift=    0.000
 RMSDP=2.78D-09 MaxDP=9.80D-08 DE=-6.82D-12 OVMax= 2.00D-07

 SCF Done:  E(RM062X) =  -702.695485037     A.U. after   10 cycles
            NFock= 10  Conv=0.28D-08     -V/T= 2.0016
 KE= 7.015739099833D+02 PE=-1.783525903269D+03 EE= 3.246337225658D+02
 Leave Link  502 at Sat Apr 17 06:05:56 2021, MaxMem=   104857600 cpu:            3254.7 elap:              73.7
 (Enter /s/ls4/users/knvvv/bin/g16sse/l601.exe)
 Copying SCF densities to generalized density rwf, IOpCl= 0 IROHF=0.

 **********************************************************************

            Population analysis using the SCF density.

 **********************************************************************

 Orbital symmetries:
       Occupied  (SG) (SG) (SG) (SG) (PI) (PI) (SG) (PI) (PI) (SG)
                 (SG) (SG) (PI) (PI) (SG)
       Virtual   (PI) (PI) (SG) (SG) (PI) (PI) (SG) (DLTA) (DLTA)
                 (PI) (PI) (SG) (SG) (PI) (PI) (SG) (DLTA) (DLTA)
                 (SG) (PI) (PI) (DLTA) (DLTA) (SG) (PI) (PI) (SG)
                 (PI) (PI) (SG) (PI) (PI) (PHI) (PHI) (DLTA) (DLTA)
                 (PI) (PI) (SG) (DLTA) (DLTA) (SG) (DLTA) (DLTA)
                 (PI) (PI) (SG) (SG) (PI) (PI) (SG) (SG) (PI) (PI)
                 (SG) (DLTA) (DLTA) (PI) (PI) (PHI) (PHI) (DLTA)
                 (DLTA) (PI) (PI) (DLTA) (DLTA) (SG) (SG) (PHI)
                 (PHI) (?A) (?A) (PI) (PI) (DLTA) (DLTA) (PHI)
                 (PHI) (SG) (PI) (PI) (DLTA) (DLTA) (SG) (PI) (PI)
                 (SG) (SG) (PI) (PI) (SG) (SG) (DLTA) (DLTA) (PI)
                 (PI) (?A) (?A) (PHI) (PHI) (SG) (DLTA) (DLTA)
                 (PI) (PI) (SG) (PHI) (PHI) (PI) (PI) (DLTA) (DLTA)
                 (SG) (PI) (PI) (DLTA) (DLTA) (PI) (PI) (SG) (SG)
                 (PI) (PI) (SG) (SG) (DLTA) (DLTA) (PI) (PI) (SG)
                 (SG) (SG) (PI) (PI) (SG) (SG) (SG) (SG) (SG)
 The electronic state is 1-SG.
 Alpha  occ. eigenvalues -- -102.62195 -56.89164  -9.77921  -7.50097  -7.50018
 Alpha  occ. eigenvalues --   -7.50018  -4.41017  -2.91040  -2.91040  -2.90872
 Alpha  occ. eigenvalues --   -0.89215  -0.46334  -0.38562  -0.38562  -0.29091
 Alpha virt. eigenvalues --   -0.03576  -0.03576   0.00553   0.01358   0.03934
 Alpha virt. eigenvalues --    0.03934   0.04392   0.04867   0.04867   0.06315
 Alpha virt. eigenvalues --    0.06315   0.08464   0.11996   0.13054   0.13054
 Alpha virt. eigenvalues --    0.16030   0.17513   0.17515   0.18978   0.19989
 Alpha virt. eigenvalues --    0.19989   0.22517   0.22518   0.26756   0.27172
 Alpha virt. eigenvalues --    0.27172   0.29557   0.37695   0.37695   0.42814
 Alpha virt. eigenvalues --    0.47365   0.47365   0.47543   0.47543   0.49505
 Alpha virt. eigenvalues --    0.49506   0.52026   0.52026   0.52163   0.53140
 Alpha virt. eigenvalues --    0.53146   0.54544   0.56845   0.56846   0.62306
 Alpha virt. eigenvalues --    0.62306   0.63198   0.74968   0.76151   0.76151
 Alpha virt. eigenvalues --    0.76307   1.01261   1.22966   1.22966   1.27252
 Alpha virt. eigenvalues --    1.27887   1.27894   1.27924   1.27924   1.32211
 Alpha virt. eigenvalues --    1.32211   1.33300   1.33300   1.38670   1.38670
 Alpha virt. eigenvalues --    1.38784   1.38786   1.41845   1.44828   1.49172
 Alpha virt. eigenvalues --    1.49172   1.50641   1.50683   1.52943   1.52943
 Alpha virt. eigenvalues --    1.53673   1.53679   1.56867   1.56867   1.65442
 Alpha virt. eigenvalues --    1.75587   1.75587   1.84719   1.84730   1.86432
 Alpha virt. eigenvalues --    1.98338   1.98338   2.27819   2.31619   2.35144
 Alpha virt. eigenvalues --    2.35144   2.80742   3.30325   3.39549   3.39555
 Alpha virt. eigenvalues --    3.47604   3.47604   3.58024   3.58030   3.59258
 Alpha virt. eigenvalues --    3.59258   3.60368   3.67280   3.67284   3.74000
 Alpha virt. eigenvalues --    3.74000   3.85597   3.91780   3.91780   4.02200
 Alpha virt. eigenvalues --    4.02200   4.06213   4.06220   4.13603   4.29590
 Alpha virt. eigenvalues --    4.29590   4.36188   4.36189   4.58611   4.58611
 Alpha virt. eigenvalues --    4.72819   5.31607   7.57773   7.57773   8.21225
 Alpha virt. eigenvalues --    8.61090  10.78483  10.78486  10.84363  10.84363
 Alpha virt. eigenvalues --   11.00265  12.46048  28.68678  42.07459  42.07459
 Alpha virt. eigenvalues --   42.12300  45.80985  98.46538 253.12473 524.35655
          Condensed to atoms (all electrons):
               1          2
     1  Al  12.308686   0.355223
     2  Cl   0.355223  16.980868
 Mulliken charges:
               1
     1  Al   0.336091
     2  Cl  -0.336091
 Sum of Mulliken charges =   0.00000
 Mulliken charges with hydrogens summed into heavy atoms:
               1
     1  Al   0.336091
     2  Cl  -0.336091
 Electronic spatial extent (au):  <R**2>=            176.7819
 Charge=             -0.0000 electrons
 Dipole moment (field-independent basis, Debye):
    X=              0.0000    Y=              0.0000    Z=             -1.7945  Tot=              1.7945
 Quadrupole moment (field-independent basis, Debye-Ang):
   XX=            -24.1461   YY=            -24.1461   ZZ=            -27.2891
   XY=             -0.0000   XZ=              0.0000   YZ=              0.0000
 Traceless Quadrupole moment (field-independent basis, Debye-Ang):
   XX=              1.0476   YY=              1.0476   ZZ=             -2.0953
   XY=             -0.0000   XZ=              0.0000   YZ=              0.0000
 Octapole moment (field-independent basis, Debye-Ang**2):
  XXX=              0.0000  YYY=              0.0000  ZZZ=             16.0496  XYY=              0.0000
  XXY=              0.0000  XXZ=              1.8983  XZZ=              0.0000  YZZ=              0.0000
  YYZ=              1.8983  XYZ=             -0.0000
 Hexadecapole moment (field-independent basis, Debye-Ang**3):
 XXXX=            -37.5925 YYYY=            -37.5925 ZZZZ=           -241.9910 XXXY=             -0.0000
 XXXZ=              0.0000 YYYX=             -0.0000 YYYZ=              0.0000 ZZZX=              0.0000
 ZZZY=              0.0000 XXYY=            -12.5307 XXZZ=            -44.0813 YYZZ=            -44.0813
 XXYZ=              0.0000 YYXZ=              0.0000 ZZXY=              0.0000
 N-N= 5.462278568247D+01 E-N=-1.783525903954D+03  KE= 7.015739099833D+02
 PrsmSu:  requested number of processors reduced to:  21 ShMem   1 Linda.
 No NMR shielding tensors so no spin-rotation constants.
 Leave Link  601 at Sat Apr 17 06:05:59 2021, MaxMem=   104857600 cpu:              99.0 elap:               2.2
 (Enter /s/ls4/users/knvvv/bin/g16sse/l801.exe)
 DoSCS=F DFT=T ScalE2(SS,OS)=  1.000000  1.000000
 Range of M.O.s used for correlation:     1   155
 NBasis=   155 NAE=    15 NBE=    15 NFC=     0 NFV=     0
 NROrb=    155 NOA=    15 NOB=    15 NVA=   140 NVB=   140

 **** Warning!!: The largest alpha MO coefficient is  0.20562831D+02

 Leave Link  801 at Sat Apr 17 06:05:59 2021, MaxMem=   104857600 cpu:               4.0 elap:               0.1
 (Enter /s/ls4/users/knvvv/bin/g16sse/l914.exe)
 RHF ground state
 Doing stability rather than CIS.
 Two-electron integrals replicated using symmetry.
 MDV=   104857600 DFT=T DoStab=T Mixed=T DoRPA=F DoScal=F NonHer=F
 Making orbital integer symmetry assigments:
 Orbital symmetries:
       Occupied  (SG) (SG) (SG) (SG) (PI) (PI) (SG) (PI) (PI) (SG)
                 (SG) (SG) (PI) (PI) (SG)
       Virtual   (PI) (PI) (SG) (SG) (PI) (PI) (SG) (DLTA) (DLTA)
                 (PI) (PI) (SG) (SG) (PI) (PI) (SG) (DLTA) (DLTA)
                 (SG) (PI) (PI) (DLTA) (DLTA) (SG) (PI) (PI) (SG)
                 (PI) (PI) (SG) (PI) (PI) (PHI) (PHI) (DLTA) (DLTA)
                 (PI) (PI) (SG) (DLTA) (DLTA) (SG) (DLTA) (DLTA)
                 (PI) (PI) (SG) (SG) (PI) (PI) (SG) (SG) (PI) (PI)
                 (SG) (DLTA) (DLTA) (PI) (PI) (PHI) (PHI) (DLTA)
                 (DLTA) (PI) (PI) (DLTA) (DLTA) (SG) (SG) (PHI)
                 (PHI) (?A) (?A) (PI) (PI) (DLTA) (DLTA) (PHI)
                 (PHI) (SG) (PI) (PI) (DLTA) (DLTA) (SG) (PI) (PI)
                 (SG) (SG) (PI) (PI) (SG) (SG) (DLTA) (DLTA) (PI)
                 (PI) (?A) (?A) (PHI) (PHI) (SG) (DLTA) (DLTA)
                 (PI) (PI) (SG) (PHI) (PHI) (PI) (PI) (DLTA) (DLTA)
                 (SG) (PI) (PI) (DLTA) (DLTA) (PI) (PI) (SG) (SG)
                 (PI) (PI) (SG) (SG) (DLTA) (DLTA) (PI) (PI) (SG)
                 (SG) (SG) (PI) (PI) (SG) (SG) (SG) (SG) (SG)
    24 initial guesses have been made.
 Convergence on wavefunction:    0.001000000000000
 Davidson Disk Diagonalization:  ConvIn= 1.00D-03 SkipCon=T Conv= 1.00D-03.
 Max sub-space:  2000 roots to seek:    24 dimension of matrix:         4200
 Iteration     1 Dimension    24 NMult     0 NNew     24
 Estimated number of processors is:   20
 CISAX will form     1 AO SS matrices at one time.
 NMat=     1 NSing=     1 JSym2X= 2.
 FoFJK:  IHMeth= 1 ICntrl=       0 DoSepK=F KAlg= 0 I1Cent=           0 FoldK=F
 IRaf= 980000000 NMat=       1 IRICut=       1 DoRegI=T DoRafI=F ISym2E= 2 IDoP0=0 IntGTp=1.
 FoFCou: FMM=F IPFlag=           0 FMFlag=      100000 FMFlg1=           0
         NFxFlg=           0 DoJE=F BraDBF=F KetDBF=F FulRan=T
         wScrn=  0.000000 ICntrl=         0 IOpCl=  0 I1Cent=           0 NGrid=           0
         NMat0=    1 NMatS0=      1 NMatT0=    0 NMatD0=    1 NMtDS0=    0 NMtDT0=    0
 Integrals replicated using symmetry in FoFCou.
 CoulSu:  requested number of processors reduced to:  21 ShMem   1 Linda.
 NMat=     1 NSing=     1 JSym2X= 2.
 CoulSu:  requested number of processors reduced to:  21 ShMem   1 Linda.
 NMat=     1 NSing=     1 JSym2X= 2.
 CoulSu:  requested number of processors reduced to:  21 ShMem   1 Linda.
 NMat=     1 NSing=     1 JSym2X= 2.
 CoulSu:  requested number of processors reduced to:  21 ShMem   1 Linda.
 NMat=     1 NSing=     1 JSym2X= 2.
 CoulSu:  requested number of processors reduced to:  21 ShMem   1 Linda.
 NMat=     1 NSing=     1 JSym2X= 2.
 CoulSu:  requested number of processors reduced to:  21 ShMem   1 Linda.
 NMat=     1 NSing=     1 JSym2X= 2.
 CoulSu:  requested number of processors reduced to:  21 ShMem   1 Linda.
 NMat=     1 NSing=     1 JSym2X= 2.
 CoulSu:  requested number of processors reduced to:  21 ShMem   1 Linda.
 NMat=     1 NSing=     1 JSym2X= 2.
 CoulSu:  requested number of processors reduced to:  21 ShMem   1 Linda.
 NMat=     1 NSing=     1 JSym2X= 2.
 CoulSu:  requested number of processors reduced to:  21 ShMem   1 Linda.
 NMat=     1 NSing=     1 JSym2X= 2.
 CoulSu:  requested number of processors reduced to:  21 ShMem   1 Linda.
 NMat=     1 NSing=     1 JSym2X= 2.
 CoulSu:  requested number of processors reduced to:  21 ShMem   1 Linda.
 NMat=     1 NSing=     0 JSym2X= 2.
 CoulSu:  requested number of processors reduced to:  21 ShMem   1 Linda.
 NMat=     1 NSing=     0 JSym2X= 2.
 CoulSu:  requested number of processors reduced to:  21 ShMem   1 Linda.
 NMat=     1 NSing=     0 JSym2X= 2.
 CoulSu:  requested number of processors reduced to:  21 ShMem   1 Linda.
 NMat=     1 NSing=     0 JSym2X= 2.
 CoulSu:  requested number of processors reduced to:  21 ShMem   1 Linda.
 NMat=     1 NSing=     0 JSym2X= 2.
 CoulSu:  requested number of processors reduced to:  21 ShMem   1 Linda.
 NMat=     1 NSing=     0 JSym2X= 2.
 CoulSu:  requested number of processors reduced to:  21 ShMem   1 Linda.
 NMat=     1 NSing=     0 JSym2X= 2.
 CoulSu:  requested number of processors reduced to:  21 ShMem   1 Linda.
 NMat=     1 NSing=     0 JSym2X= 2.
 CoulSu:  requested number of processors reduced to:  21 ShMem   1 Linda.
 NMat=     1 NSing=     0 JSym2X= 2.
 CoulSu:  requested number of processors reduced to:  21 ShMem   1 Linda.
 NMat=     1 NSing=     0 JSym2X= 2.
 CoulSu:  requested number of processors reduced to:  21 ShMem   1 Linda.
 NMat=     1 NSing=     0 JSym2X= 2.
 CoulSu:  requested number of processors reduced to:  21 ShMem   1 Linda.
 NMat=     1 NSing=     0 JSym2X= 2.
 CoulSu:  requested number of processors reduced to:  21 ShMem   1 Linda.
 New state      1 was old state      2
 Excitation Energies [eV] at current iteration:
 Root      1 :     2.912765382911218
 Root      2 :     2.912765382916909
 Root      3 :     5.911263926677799
 Root      4 :     6.173376993068577
 Root      5 :     6.354197449240231
 Root      6 :     6.403133312237117
 Root      7 :     6.508163187964827
 Root      8 :     6.508163187976175
 Root      9 :     6.641527863580042
 Root     10 :     6.684548877077507
 Root     11 :     6.696863812129579
 Root     12 :     6.768125556929059
 Root     13 :     6.894313739541293
 Root     14 :     7.275132440296297
 Root     15 :     7.275132440395008
 Root     16 :     7.426732844948657
 Root     17 :     7.546036439423630
 Root     18 :     7.546494865177533
 Root     19 :     7.598257169404040
 Root     20 :     7.598747292505124
 Root     21 :     7.659609238043033
 Root     22 :     7.683009701792937
 Root     23 :     7.683009701865425
 Root     24 :     9.043558348625782
 Iteration     2 Dimension    48 NMult    24 NNew     24
 Estimated number of processors is:   20
 CISAX will form     1 AO SS matrices at one time.
 NMat=     1 NSing=     1 JSym2X= 2.
 CoulSu:  requested number of processors reduced to:  21 ShMem   1 Linda.
 NMat=     1 NSing=     1 JSym2X= 2.
 CoulSu:  requested number of processors reduced to:  21 ShMem   1 Linda.
 NMat=     1 NSing=     1 JSym2X= 2.
 CoulSu:  requested number of processors reduced to:  21 ShMem   1 Linda.
 NMat=     1 NSing=     1 JSym2X= 2.
 CoulSu:  requested number of processors reduced to:  21 ShMem   1 Linda.
 NMat=     1 NSing=     1 JSym2X= 2.
 CoulSu:  requested number of processors reduced to:  21 ShMem   1 Linda.
 NMat=     1 NSing=     1 JSym2X= 2.
 CoulSu:  requested number of processors reduced to:  21 ShMem   1 Linda.
 NMat=     1 NSing=     1 JSym2X= 2.
 CoulSu:  requested number of processors reduced to:  21 ShMem   1 Linda.
 NMat=     1 NSing=     1 JSym2X= 2.
 CoulSu:  requested number of processors reduced to:  21 ShMem   1 Linda.
 NMat=     1 NSing=     1 JSym2X= 2.
 CoulSu:  requested number of processors reduced to:  21 ShMem   1 Linda.
 NMat=     1 NSing=     1 JSym2X= 2.
 CoulSu:  requested number of processors reduced to:  21 ShMem   1 Linda.
 NMat=     1 NSing=     1 JSym2X= 2.
 CoulSu:  requested number of processors reduced to:  21 ShMem   1 Linda.
 NMat=     1 NSing=     1 JSym2X= 2.
 CoulSu:  requested number of processors reduced to:  21 ShMem   1 Linda.
 NMat=     1 NSing=     0 JSym2X= 2.
 CoulSu:  requested number of processors reduced to:  21 ShMem   1 Linda.
 NMat=     1 NSing=     0 JSym2X= 2.
 CoulSu:  requested number of processors reduced to:  21 ShMem   1 Linda.
 NMat=     1 NSing=     0 JSym2X= 2.
 CoulSu:  requested number of processors reduced to:  21 ShMem   1 Linda.
 NMat=     1 NSing=     0 JSym2X= 2.
 CoulSu:  requested number of processors reduced to:  21 ShMem   1 Linda.
 NMat=     1 NSing=     0 JSym2X= 2.
 CoulSu:  requested number of processors reduced to:  21 ShMem   1 Linda.
 NMat=     1 NSing=     0 JSym2X= 2.
 CoulSu:  requested number of processors reduced to:  21 ShMem   1 Linda.
 NMat=     1 NSing=     0 JSym2X= 2.
 CoulSu:  requested number of processors reduced to:  21 ShMem   1 Linda.
 NMat=     1 NSing=     0 JSym2X= 2.
 CoulSu:  requested number of processors reduced to:  21 ShMem   1 Linda.
 NMat=     1 NSing=     0 JSym2X= 2.
 CoulSu:  requested number of processors reduced to:  21 ShMem   1 Linda.
 NMat=     1 NSing=     0 JSym2X= 2.
 CoulSu:  requested number of processors reduced to:  21 ShMem   1 Linda.
 NMat=     1 NSing=     0 JSym2X= 2.
 CoulSu:  requested number of processors reduced to:  21 ShMem   1 Linda.
 NMat=     1 NSing=     0 JSym2X= 2.
 CoulSu:  requested number of processors reduced to:  21 ShMem   1 Linda.
 Root      1 not converged, maximum delta is    0.148823319904212
 Excitation Energies [eV] at current iteration:
 Root      1 :     2.132355678866575   Change is   -0.780409704044642
 Root      2 :     2.132355678871457   Change is   -0.780409704045452
 Root      3 :     4.727984640131918   Change is   -1.183279286545881
 Root      4 :     5.562133654679686   Change is   -0.611243338388891
 Root      5 :     5.576777917745495   Change is   -0.931385270219333
 Root      6 :     5.576777917748479   Change is   -0.931385270227696
 Root      7 :     5.812181126936872   Change is   -0.542016322303359
 Root      8 :     6.197137896550828   Change is   -0.205995415686289
 Root      9 :     6.268440322546854   Change is   -0.416108554530653
 Root     10 :     6.388683251107696   Change is   -0.252844612472346
 Root     11 :     6.508791862374688   Change is   -0.188071949754892
 Root     12 :     6.555777370872104   Change is   -0.212348186056955
 Root     13 :     6.727375868326058   Change is   -0.166937871215236
 Root     14 :     7.038378167294358   Change is   -2.005180181331423
 Root     15 :     7.150316811289863   Change is   -0.124815629006434
 Root     16 :     7.150316811363487   Change is   -0.124815629031521
 Root     17 :     7.253560773974082   Change is   -0.173172070974575
 Root     18 :     7.405383796222813   Change is   -0.140652643200818
 Root     19 :     7.406091317077284   Change is   -0.140403548100248
 Root     20 :     7.423737744953836   Change is   -0.174519424450205
 Root     21 :     7.427003746115562   Change is   -0.256005955677374
 Root     22 :     7.427003746183682   Change is   -0.256005955681743
 Root     23 :     7.428020004685833   Change is   -0.170727287819290
 Root     24 :     7.565068865212369   Change is   -0.094540372830664
 Iteration     3 Dimension    54 NMult    48 NNew      6
 Estimated number of processors is:   20
 CISAX will form     1 AO SS matrices at one time.
 NMat=     1 NSing=     1 JSym2X= 2.
 CoulSu:  requested number of processors reduced to:  21 ShMem   1 Linda.
 NMat=     1 NSing=     1 JSym2X= 2.
 CoulSu:  requested number of processors reduced to:  21 ShMem   1 Linda.
 NMat=     1 NSing=     1 JSym2X= 2.
 CoulSu:  requested number of processors reduced to:  21 ShMem   1 Linda.
 NMat=     1 NSing=     0 JSym2X= 2.
 CoulSu:  requested number of processors reduced to:  21 ShMem   1 Linda.
 NMat=     1 NSing=     0 JSym2X= 2.
 CoulSu:  requested number of processors reduced to:  21 ShMem   1 Linda.
 NMat=     1 NSing=     0 JSym2X= 2.
 CoulSu:  requested number of processors reduced to:  21 ShMem   1 Linda.
 Root      1 not converged, maximum delta is    0.095617110617112
 Excitation Energies [eV] at current iteration:
 Root      1 :     2.099127642995270   Change is   -0.033228035871305
 Root      2 :     2.099127643002225   Change is   -0.033228035869233
 Root      3 :     4.598047014537753   Change is   -0.129937625594166
 Root      4 :     5.488591719164131   Change is   -0.088186198584348
 Root      5 :     5.488660248905858   Change is   -0.088117668839636
 Root      6 :     6.382687811364258   Change is   -0.005995439743438
 Iteration     4 Dimension    60 NMult    54 NNew      6
 Estimated number of processors is:   20
 CISAX will form     1 AO SS matrices at one time.
 NMat=     1 NSing=     1 JSym2X= 2.
 CoulSu:  requested number of processors reduced to:  21 ShMem   1 Linda.
 NMat=     1 NSing=     1 JSym2X= 2.
 CoulSu:  requested number of processors reduced to:  21 ShMem   1 Linda.
 NMat=     1 NSing=     1 JSym2X= 2.
 CoulSu:  requested number of processors reduced to:  21 ShMem   1 Linda.
 NMat=     1 NSing=     0 JSym2X= 2.
 CoulSu:  requested number of processors reduced to:  21 ShMem   1 Linda.
 NMat=     1 NSing=     0 JSym2X= 2.
 CoulSu:  requested number of processors reduced to:  21 ShMem   1 Linda.
 NMat=     1 NSing=     0 JSym2X= 2.
 CoulSu:  requested number of processors reduced to:  21 ShMem   1 Linda.
 Root      1 not converged, maximum delta is    0.005345419452564
 Excitation Energies [eV] at current iteration:
 Root      1 :     2.096944681528144   Change is   -0.002182961467126
 Root      2 :     2.096944681535020   Change is   -0.002182961467205
 Root      3 :     4.588182364006043   Change is   -0.009864650531709
 Root      4 :     5.470457083830145   Change is   -0.018134635333987
 Root      5 :     5.470462917606548   Change is   -0.018197331299310
 Root      6 :     6.382026918571482   Change is   -0.000660892792777
 Iteration     5 Dimension    66 NMult    60 NNew      6
 Estimated number of processors is:   20
 CISAX will form     1 AO SS matrices at one time.
 NMat=     1 NSing=     1 JSym2X= 2.
 CoulSu:  requested number of processors reduced to:  21 ShMem   1 Linda.
 NMat=     1 NSing=     1 JSym2X= 2.
 CoulSu:  requested number of processors reduced to:  21 ShMem   1 Linda.
 NMat=     1 NSing=     1 JSym2X= 2.
 CoulSu:  requested number of processors reduced to:  21 ShMem   1 Linda.
 NMat=     1 NSing=     0 JSym2X= 2.
 CoulSu:  requested number of processors reduced to:  21 ShMem   1 Linda.
 NMat=     1 NSing=     0 JSym2X= 2.
 CoulSu:  requested number of processors reduced to:  21 ShMem   1 Linda.
 NMat=     1 NSing=     0 JSym2X= 2.
 CoulSu:  requested number of processors reduced to:  21 ShMem   1 Linda.
 Root      1 has converged.
 Excitation Energies [eV] at current iteration:
 Root      1 :     2.096897643201149   Change is   -0.000047038326995
 Root      2 :     2.096897643208013   Change is   -0.000047038327007
 Root      3 :     4.587127216837078   Change is   -0.001055147168965
 Root      4 :     5.469298056883440   Change is   -0.001159026946705
 Root      5 :     5.469298154691212   Change is   -0.001164762915336
 Root      6 :     6.382000361432423   Change is   -0.000026557139058
 Convergence achieved on expansion vectors.
 ***********************************************************************
 Stability analysis using <AA,BB:AA,BB> singles matrix:
 ***********************************************************************
 1PDM for each excited state written to RWF  633
 Ground to excited state transition densities written to RWF  633

 Eigenvectors of the stability matrix:
 
 Excited state symmetry could not be determined.
 Eigenvector   1:      Triplet-?Sym  Eigenvalue= 0.0770596  <S**2>=2.000
      12 -> 16        -0.12299
      15 -> 16         0.63934
      15 -> 17        -0.12569
      15 -> 20        -0.11661
      15 -> 29        -0.13360
 The wavefunction is stable under the perturbations considered.
 Leave Link  914 at Sat Apr 17 06:08:34 2021, MaxMem=   104857600 cpu:            6159.2 elap:             155.2
 (Enter /s/ls4/users/knvvv/bin/g16sse/l508.exe)
 The wavefunction is already stable.
 Leave Link  508 at Sat Apr 17 06:08:34 2021, MaxMem=   104857600 cpu:               2.2 elap:               0.1
 (Enter /s/ls4/users/knvvv/bin/g16sse/l601.exe)
 Copying SCF densities to generalized density rwf, IOpCl= 0 IROHF=0.

 **********************************************************************

            Population analysis using the SCF density.

 **********************************************************************

 Orbital symmetries:
       Occupied  (SG) (SG) (SG) (SG) (PI) (PI) (SG) (PI) (PI) (SG)
                 (SG) (SG) (PI) (PI) (SG)
       Virtual   (PI) (PI) (SG) (SG) (PI) (PI) (SG) (DLTA) (DLTA)
                 (PI) (PI) (SG) (SG) (PI) (PI) (SG) (DLTA) (DLTA)
                 (SG) (PI) (PI) (DLTA) (DLTA) (SG) (PI) (PI) (SG)
                 (PI) (PI) (SG) (PI) (PI) (PHI) (PHI) (DLTA) (DLTA)
                 (PI) (PI) (SG) (DLTA) (DLTA) (SG) (DLTA) (DLTA)
                 (PI) (PI) (SG) (SG) (PI) (PI) (SG) (SG) (PI) (PI)
                 (SG) (DLTA) (DLTA) (PI) (PI) (PHI) (PHI) (DLTA)
                 (DLTA) (PI) (PI) (DLTA) (DLTA) (SG) (SG) (PHI)
                 (PHI) (?A) (?A) (PI) (PI) (DLTA) (DLTA) (PHI)
                 (PHI) (SG) (PI) (PI) (DLTA) (DLTA) (SG) (PI) (PI)
                 (SG) (SG) (PI) (PI) (SG) (SG) (DLTA) (DLTA) (PI)
                 (PI) (?A) (?A) (PHI) (PHI) (SG) (DLTA) (DLTA)
                 (PI) (PI) (SG) (PHI) (PHI) (PI) (PI) (DLTA) (DLTA)
                 (SG) (PI) (PI) (DLTA) (DLTA) (PI) (PI) (SG) (SG)
                 (PI) (PI) (SG) (SG) (DLTA) (DLTA) (PI) (PI) (SG)
                 (SG) (SG) (PI) (PI) (SG) (SG) (SG) (SG) (SG)
 The electronic state is 1-SG.
 Alpha  occ. eigenvalues -- -102.62195 -56.89164  -9.77921  -7.50097  -7.50018
 Alpha  occ. eigenvalues --   -7.50018  -4.41017  -2.91040  -2.91040  -2.90872
 Alpha  occ. eigenvalues --   -0.89215  -0.46334  -0.38562  -0.38562  -0.29091
 Alpha virt. eigenvalues --   -0.03576  -0.03576   0.00553   0.01358   0.03934
 Alpha virt. eigenvalues --    0.03934   0.04392   0.04867   0.04867   0.06315
 Alpha virt. eigenvalues --    0.06315   0.08464   0.11996   0.13054   0.13054
 Alpha virt. eigenvalues --    0.16030   0.17513   0.17515   0.18978   0.19989
 Alpha virt. eigenvalues --    0.19989   0.22517   0.22518   0.26756   0.27172
 Alpha virt. eigenvalues --    0.27172   0.29557   0.37695   0.37695   0.42814
 Alpha virt. eigenvalues --    0.47365   0.47365   0.47543   0.47543   0.49505
 Alpha virt. eigenvalues --    0.49506   0.52026   0.52026   0.52163   0.53140
 Alpha virt. eigenvalues --    0.53146   0.54544   0.56845   0.56846   0.62306
 Alpha virt. eigenvalues --    0.62306   0.63198   0.74968   0.76151   0.76151
 Alpha virt. eigenvalues --    0.76307   1.01261   1.22966   1.22966   1.27252
 Alpha virt. eigenvalues --    1.27887   1.27894   1.27924   1.27924   1.32211
 Alpha virt. eigenvalues --    1.32211   1.33300   1.33300   1.38670   1.38670
 Alpha virt. eigenvalues --    1.38784   1.38786   1.41845   1.44828   1.49172
 Alpha virt. eigenvalues --    1.49172   1.50641   1.50683   1.52943   1.52943
 Alpha virt. eigenvalues --    1.53673   1.53679   1.56867   1.56867   1.65442
 Alpha virt. eigenvalues --    1.75587   1.75587   1.84719   1.84730   1.86432
 Alpha virt. eigenvalues --    1.98338   1.98338   2.27819   2.31619   2.35144
 Alpha virt. eigenvalues --    2.35144   2.80742   3.30325   3.39549   3.39555
 Alpha virt. eigenvalues --    3.47604   3.47604   3.58024   3.58030   3.59258
 Alpha virt. eigenvalues --    3.59258   3.60368   3.67280   3.67284   3.74000
 Alpha virt. eigenvalues --    3.74000   3.85597   3.91780   3.91780   4.02200
 Alpha virt. eigenvalues --    4.02200   4.06213   4.06220   4.13603   4.29590
 Alpha virt. eigenvalues --    4.29590   4.36188   4.36189   4.58611   4.58611
 Alpha virt. eigenvalues --    4.72819   5.31607   7.57773   7.57773   8.21225
 Alpha virt. eigenvalues --    8.61090  10.78483  10.78486  10.84363  10.84363
 Alpha virt. eigenvalues --   11.00265  12.46048  28.68678  42.07459  42.07459
 Alpha virt. eigenvalues --   42.12300  45.80985  98.46538 253.12473 524.35655
          Condensed to atoms (all electrons):
               1          2
     1  Al  12.308686   0.355223
     2  Cl   0.355223  16.980868
 Mulliken charges:
               1
     1  Al   0.336091
     2  Cl  -0.336091
 Sum of Mulliken charges =   0.00000
 Mulliken charges with hydrogens summed into heavy atoms:
               1
     1  Al   0.336091
     2  Cl  -0.336091
 Electronic spatial extent (au):  <R**2>=            176.7819
 Charge=             -0.0000 electrons
 Dipole moment (field-independent basis, Debye):
    X=              0.0000    Y=              0.0000    Z=             -1.7945  Tot=              1.7945
 Quadrupole moment (field-independent basis, Debye-Ang):
   XX=            -24.1461   YY=            -24.1461   ZZ=            -27.2891
   XY=             -0.0000   XZ=              0.0000   YZ=              0.0000
 Traceless Quadrupole moment (field-independent basis, Debye-Ang):
   XX=              1.0476   YY=              1.0476   ZZ=             -2.0953
   XY=             -0.0000   XZ=              0.0000   YZ=              0.0000
 Octapole moment (field-independent basis, Debye-Ang**2):
  XXX=              0.0000  YYY=              0.0000  ZZZ=             16.0496  XYY=              0.0000
  XXY=              0.0000  XXZ=              1.8983  XZZ=              0.0000  YZZ=              0.0000
  YYZ=              1.8983  XYZ=             -0.0000
 Hexadecapole moment (field-independent basis, Debye-Ang**3):
 XXXX=            -37.5925 YYYY=            -37.5925 ZZZZ=           -241.9910 XXXY=             -0.0000
 XXXZ=              0.0000 YYYX=             -0.0000 YYYZ=              0.0000 ZZZX=              0.0000
 ZZZY=              0.0000 XXYY=            -12.5307 XXZZ=            -44.0813 YYZZ=            -44.0813
 XXYZ=              0.0000 YYXZ=              0.0000 ZZXY=              0.0000
 N-N= 5.462278568247D+01 E-N=-1.783525903954D+03  KE= 7.015739099833D+02
 PrsmSu:  requested number of processors reduced to:  21 ShMem   1 Linda.
 No NMR shielding tensors so no spin-rotation constants.
 Leave Link  601 at Sat Apr 17 06:08:36 2021, MaxMem=   104857600 cpu:              88.7 elap:               2.0
 (Enter /s/ls4/users/knvvv/bin/g16sse/l9999.exe)

 Test job not archived.
 1\1\GINC-N156\Stability\RM062X\Gen\Al1Cl1\KNVVV\17-Apr-2021\0\\#P M062
 X/GEN Integral=UltraFineGrid SCF=NoSymm Stable=(RExt, Opt) IOp(1/33=1)
 \\Database calculations.\\0,1\Al,0,0.,0.,0.\Cl,0,0.,0.,2.14101427\\Ver
 sion=ES64L-G16RevA.03\State=1-SG\HF=-702.695485\RMSD=2.781e-09\Dipole=
 0.,0.,-0.7060164\Quadrupole=0.7788972,0.7788972,-1.5577944,0.,0.,0.\PG
 =C*V [C*(Al1Cl1)]\\@


 SUCCESS IS COUNTED SWEETEST
 BY THOSE WHO NE'ER SUCCEED.
 TO COMPREHEND NECTAR
 REQUIRES SOREST NEED.
           EMILY DICKINSON
 Job cpu time:       0 days  2 hours 46 minutes 51.7 seconds.
 Elapsed time:       0 days  0 hours  4 minutes  2.7 seconds.
 File lengths (MBytes):  RWF=    129 Int=      0 D2E=      0 Chk=      5 Scr=      1
 Normal termination of Gaussian 16 at Sat Apr 17 06:08:36 2021.
