 Entering Gaussian System, Link 0=/s/ls4/users/knvvv/bin/g16sse/g16
 Input=data/database/M062X--def2-QZVP--MB16-43_H2.gjf
 Output=data/database/M062X--def2-QZVP--MB16-43_H2.log
 Initial command:
 /s/ls4/users/knvvv/bin/g16sse/l1.exe "/s/ls4/users/knvvv/bin/scratch/Gau-47961.inp" -scrdir="/s/ls4/users/knvvv/bin/scratch/"
 Entering Link 1 = /s/ls4/users/knvvv/bin/g16sse/l1.exe PID=     47962.
  
 Copyright (c) 1988,1990,1992,1993,1995,1998,2003,2009,2016,
            Gaussian, Inc.  All Rights Reserved.
  
 This is part of the Gaussian(R) 16 program.  It is based on
 the Gaussian(R) 09 system (copyright 2009, Gaussian, Inc.),
 the Gaussian(R) 03 system (copyright 2003, Gaussian, Inc.),
 the Gaussian(R) 98 system (copyright 1998, Gaussian, Inc.),
 the Gaussian(R) 94 system (copyright 1995, Gaussian, Inc.),
 the Gaussian 92(TM) system (copyright 1992, Gaussian, Inc.),
 the Gaussian 90(TM) system (copyright 1990, Gaussian, Inc.),
 the Gaussian 88(TM) system (copyright 1988, Gaussian, Inc.),
 the Gaussian 86(TM) system (copyright 1986, Carnegie Mellon
 University), and the Gaussian 82(TM) system (copyright 1983,
 Carnegie Mellon University). Gaussian is a federally registered
 trademark of Gaussian, Inc.
  
 This software contains proprietary and confidential information,
 including trade secrets, belonging to Gaussian, Inc.
  
 This software is provided under written license and may be
 used, copied, transmitted, or stored only in accord with that
 written license.
  
 The following legend is applicable only to US Government
 contracts under FAR:
  
                    RESTRICTED RIGHTS LEGEND
  
 Use, reproduction and disclosure by the US Government is
 subject to restrictions as set forth in subparagraphs (a)
 and (c) of the Commercial Computer Software - Restricted
 Rights clause in FAR 52.227-19.
  
 Gaussian, Inc.
 340 Quinnipiac St., Bldg. 40, Wallingford CT 06492
  
  
 ---------------------------------------------------------------
 Warning -- This program may not be used in any manner that
 competes with the business of Gaussian, Inc. or will provide
 assistance to any competitor of Gaussian, Inc.  The licensee
 of this program is prohibited from giving any competitor of
 Gaussian, Inc. access to this program.  By using this program,
 the user acknowledges that Gaussian, Inc. is engaged in the
 business of creating and licensing software in the field of
 computational chemistry and represents and warrants to the
 licensee that it is not a competitor of Gaussian, Inc. and that
 it will not use this program in any manner prohibited above.
 ---------------------------------------------------------------
  

 Cite this work as:
 Gaussian 16, Revision A.03,
 M. J. Frisch, G. W. Trucks, H. B. Schlegel, G. E. Scuseria, 
 M. A. Robb, J. R. Cheeseman, G. Scalmani, V. Barone, 
 G. A. Petersson, H. Nakatsuji, X. Li, M. Caricato, A. V. Marenich, 
 J. Bloino, B. G. Janesko, R. Gomperts, B. Mennucci, H. P. Hratchian, 
 J. V. Ortiz, A. F. Izmaylov, J. L. Sonnenberg, D. Williams-Young, 
 F. Ding, F. Lipparini, F. Egidi, J. Goings, B. Peng, A. Petrone, 
 T. Henderson, D. Ranasinghe, V. G. Zakrzewski, J. Gao, N. Rega, 
 G. Zheng, W. Liang, M. Hada, M. Ehara, K. Toyota, R. Fukuda, 
 J. Hasegawa, M. Ishida, T. Nakajima, Y. Honda, O. Kitao, H. Nakai, 
 T. Vreven, K. Throssell, J. A. Montgomery, Jr., J. E. Peralta, 
 F. Ogliaro, M. J. Bearpark, J. J. Heyd, E. N. Brothers, K. N. Kudin, 
 V. N. Staroverov, T. A. Keith, R. Kobayashi, J. Normand, 
 K. Raghavachari, A. P. Rendell, J. C. Burant, S. S. Iyengar, 
 J. Tomasi, M. Cossi, J. M. Millam, M. Klene, C. Adamo, R. Cammi, 
 J. W. Ochterski, R. L. Martin, K. Morokuma, O. Farkas, 
 J. B. Foresman, and D. J. Fox, Gaussian, Inc., Wallingford CT, 2016.
 
 ******************************************
 Gaussian 16:  ES64L-G16RevA.03 25-Dec-2016
                17-Apr-2021 
 ******************************************
 %RWF=temp9_33578,70GB
 %nprocshared=48
 Will use up to   48 processors via shared memory.
 Default route: MaxDisk=80GB
 ----------------------------------------------------------------------
 #P M062X/Def2QZVP Integral=UltraFineGrid SCF=NoSymm Stable=(RExt, Opt)
  IOp(1/33=1)
 ----------------------------------------------------------------------
 1/33=1,38=1,172=1/1;
 2/12=2,17=6,18=5,40=1/2;
 3/5=45,7=101,11=2,25=1,30=1,74=-55,75=-5/1,2,3;
 4/9=2/1;
 5/5=2,38=5/2;
 6/7=2,8=2,9=2,10=2,28=1/1;
 8/6=1,10=90,11=11/1;
 9/8=-3,42=1,46=1/14;
 5/5=2,8=3,17=40,38=5/8(-2);
 6/7=2,8=2,9=2,10=2,28=1/1;
 99/5=1,9=1/99;
 Leave Link    1 at Sat Apr 17 05:23:23 2021, MaxMem=           0 cpu:              11.1 elap:               0.3
 (Enter /s/ls4/users/knvvv/bin/g16sse/l101.exe)
 ONIOM data not found on unit 2.
 ----------------------
 Database calculations.
 ----------------------
 TstMul:  ICh=     0
 TstMul:  Mul=     1
 TstMul:  ICh=     0
 TstMul:  Mul=     1
 Symbolic Z-matrix:
 Charge =  0 Multiplicity = 1
 H                     0.        0.       -0.37176 
 H                     0.        0.        0.37176 
 
 RdStrC is calling ZToCFu for IStruc=1 NZ=     2.
 PrtBox:  NBox=     1 Levels=  0 BoxLen=    8.00 SMaxX=        1.41
          Shift=            0.000000            0.000000            0.702529
 Box      1 Number                   0 centers from      1 to      2:
 After GenITR:
 ITRead=  0  0
 MicOpt= -1 -1
 ITRead=  0  0
 MicOpt= -1 -1
 NAtoms=      2 NQM=        2 NQMF=       0 NMMI=      0 NMMIF=      0
                NMic=       0 NMicF=      0.
                    Isotopes and Nuclear Properties:
 (Nuclear quadrupole moments (NQMom) in fm**2, nuclear magnetic moments (NMagM)
  in nuclear magnetons)

  Atom         1           2
 IAtWgt=           1           1
 AtmWgt=   1.0078250   1.0078250
 NucSpn=           1           1
 AtZEff=  -0.0000000  -0.0000000
 NQMom=    0.0000000   0.0000000
 NMagM=    2.7928460   2.7928460
 AtZNuc=   1.0000000   1.0000000
 No MM parameters found.
 Leave Link  101 at Sat Apr 17 05:23:23 2021, MaxMem=   104857600 cpu:               8.1 elap:               0.2
 (Enter /s/ls4/users/knvvv/bin/g16sse/l202.exe)
                          Input orientation:                          
 ---------------------------------------------------------------------
 Center     Atomic      Atomic             Coordinates (Angstroms)
 Number     Number       Type             X           Y           Z
 ---------------------------------------------------------------------
      1          1           0        0.000000    0.000000   -0.371763
      2          1           0        0.000000    0.000000    0.371763
 ---------------------------------------------------------------------
 Stoichiometry    H2
 Framework group  D*H[C*(H.H)]
 Deg. of freedom     1
 Full point group                 D*H     NOp   8
 Largest Abelian subgroup         D2H     NOp   8
 Largest concise Abelian subgroup C2      NOp   2
                         Standard orientation:                         
 ---------------------------------------------------------------------
 Center     Atomic      Atomic             Coordinates (Angstroms)
 Number     Number       Type             X           Y           Z
 ---------------------------------------------------------------------
      1          1           0        0.000000    0.000000    0.371763
      2          1           0        0.000000    0.000000   -0.371763
 ---------------------------------------------------------------------
 Rotational constants (GHZ):           0.0000000        1814.1404246        1814.1404246
 Leave Link  202 at Sat Apr 17 05:23:23 2021, MaxMem=   104857600 cpu:              11.1 elap:               0.3
 (Enter /s/ls4/users/knvvv/bin/g16sse/l301.exe)
 Standard basis: def2QZVP (5D, 7F)
 Ernie: Thresh=  0.10000D-02 Tol=  0.10000D-05 Strict=F.
 There are    16 symmetry adapted cartesian basis functions of AG  symmetry.
 There are     3 symmetry adapted cartesian basis functions of B1G symmetry.
 There are     8 symmetry adapted cartesian basis functions of B2G symmetry.
 There are     8 symmetry adapted cartesian basis functions of B3G symmetry.
 There are     3 symmetry adapted cartesian basis functions of AU  symmetry.
 There are    16 symmetry adapted cartesian basis functions of B1U symmetry.
 There are     8 symmetry adapted cartesian basis functions of B2U symmetry.
 There are     8 symmetry adapted cartesian basis functions of B3U symmetry.
 There are    13 symmetry adapted basis functions of AG  symmetry.
 There are     3 symmetry adapted basis functions of B1G symmetry.
 There are     7 symmetry adapted basis functions of B2G symmetry.
 There are     7 symmetry adapted basis functions of B3G symmetry.
 There are     3 symmetry adapted basis functions of AU  symmetry.
 There are    13 symmetry adapted basis functions of B1U symmetry.
 There are     7 symmetry adapted basis functions of B2U symmetry.
 There are     7 symmetry adapted basis functions of B3U symmetry.
    60 basis functions,    76 primitive gaussians,    70 cartesian basis functions
     1 alpha electrons        1 beta electrons
       nuclear repulsion energy         0.7117140794 Hartrees.
 IExCor= 4336 DFT=T Ex+Corr=M062X ExCW=0 ScaHFX=  0.540000
 ScaDFX=  1.000000  1.000000  1.000000  1.000000 ScalE2=  1.000000  1.000000
 IRadAn=      5 IRanWt=     -1 IRanGd=            0 ICorTp=0 IEmpDi=  4
 NAtoms=    2 NActive=    2 NUniq=    1 SFac= 4.00D+00 NAtFMM=   60 NAOKFM=F Big=F
 Integral buffers will be    131072 words long.
 Raffenetti 2 integral format.
 Two-electron integral symmetry is turned on.
 Leave Link  301 at Sat Apr 17 05:23:23 2021, MaxMem=   104857600 cpu:               7.1 elap:               0.2
 (Enter /s/ls4/users/knvvv/bin/g16sse/l302.exe)
 NPDir=0 NMtPBC=     1 NCelOv=     1 NCel=       1 NClECP=     1 NCelD=      1
         NCelK=      1 NCelE2=     1 NClLst=     1 CellRange=     0.0.
 One-electron integrals computed using PRISM.
 One-electron integral symmetry used in STVInt
 PrsmSu:  requested number of processors reduced to:  13 ShMem   1 Linda.
   8 Symmetry operations used in ECPInt.
 ECPInt:  NShTT=     210 NPrTT=     363 LenC2=     211 LenP2D=     362.
 LDataN:  DoStor=T MaxTD1= 6 Len=  172
 NBasis=    60 RedAO= T EigKep=  1.66D-04  NBF=    13     3     7     7     3    13     7     7
 NBsUse=    60 1.00D-06 EigRej= -1.00D+00 NBFU=    13     3     7     7     3    13     7     7
 Precomputing XC quadrature grid using
 IXCGrd= 4 IRadAn=           5 IRanWt=          -1 IRanGd=           0 AccXCQ= 0.00D+00.
 Generated NRdTot=       0 NPtTot=           0 NUsed=           0 NTot=          32
 NSgBfM=    70    70    70    70    70 MxSgAt=     2 MxSgA2=     2.
 Leave Link  302 at Sat Apr 17 05:23:26 2021, MaxMem=   104857600 cpu:             126.2 elap:               2.7
 (Enter /s/ls4/users/knvvv/bin/g16sse/l303.exe)
 DipDrv:  MaxL=1.
 Leave Link  303 at Sat Apr 17 05:23:27 2021, MaxMem=   104857600 cpu:              13.8 elap:               0.4
 (Enter /s/ls4/users/knvvv/bin/g16sse/l401.exe)
 SCF N**3 symmetry information disabled.
 ExpMin= 8.03D-02 ExpMax= 1.91D+02 ExpMxC= 2.86D+01 IAcc=3 IRadAn=         5 AccDes= 0.00D+00
 Harris functional with IExCor= 1009 and IRadAn=       5 diagonalized for initial guess.
 HarFok:  IExCor= 1009 AccDes= 0.00D+00 IRadAn=         5 IDoV= 1 UseB2=F ITyADJ=14
 ICtDFT=  3500011 ScaDFX=  1.000000  1.000000  1.000000  1.000000
 FoFCou: FMM=F IPFlag=           0 FMFlag=      100000 FMFlg1=           0
         NFxFlg=           0 DoJE=T BraDBF=F KetDBF=T FulRan=T
         wScrn=  0.000000 ICntrl=       500 IOpCl=  0 I1Cent=   200000004 NGrid=           0
         NMat0=    1 NMatS0=      1 NMatT0=    0 NMatD0=    1 NMtDS0=    0 NMtDT0=    0
 Petite list used in FoFCou.
 Harris En= -1.18213328497392    
 JPrj=0 DoOrth=F DoCkMO=F.
 Initial guess orbital symmetries:
       Occupied  (SGG)
       Virtual   (SGU) (SGG) (SGU) (PIU) (PIU) (SGG) (PIG) (PIG)
                 (SGG) (SGU) (SGU) (DLTG) (DLTG) (PIU) (PIU) (SGG)
                 (PIG) (PIG) (PIU) (PIU) (DLTU) (DLTU) (SGU) (SGG)
                 (PIG) (PIG) (SGU) (SGG) (PHIU) (PHIU) (SGU) (DLTG)
                 (DLTG) (PHIG) (PHIG) (PIU) (PIU) (SGG) (PIG) (PIG)
                 (DLTU) (DLTU) (DLTG) (DLTG) (PIU) (PIU) (PIG)
                 (PIG) (SGG) (SGU) (PIU) (PIU) (DLTU) (DLTU) (SGU)
                 (PIG) (PIG) (SGU) (SGG)
 The electronic state of the initial guess is 1-SGG.
 Leave Link  401 at Sat Apr 17 05:23:28 2021, MaxMem=   104857600 cpu:              52.7 elap:               1.2
 (Enter /s/ls4/users/knvvv/bin/g16sse/l502.exe)
 Keep R1 ints in memory in symmetry-blocked form, NReq=44538721.
 FoFCou: FMM=F IPFlag=           0 FMFlag=           0 FMFlg1=           0
         NFxFlg=           0 DoJE=F BraDBF=F KetDBF=F FulRan=T
         wScrn=  0.000000 ICntrl=       600 IOpCl=  0 I1Cent=           0 NGrid=           0
         NMat0=    1 NMatS0=   1830 NMatT0=    0 NMatD0=    1 NMtDS0=    0 NMtDT0=    0
 Petite list used in FoFCou.
 Closed shell SCF:
 Using DIIS extrapolation, IDIIS=  1040.
 NGot=   104857600 LenX=   104618559 LenY=   104613218
 Requested convergence on RMS density matrix=1.00D-08 within 128 cycles.
 Requested convergence on MAX density matrix=1.00D-06.
 Requested convergence on             energy=1.00D-06.
 No special actions if energy rises.
 Integral accuracy reduced to 1.0D-05 until final iterations.

 Cycle   1  Pass 0  IDiag  1:
 E= -1.16506131748179    
 DIIS: error= 1.65D-02 at cycle   1 NSaved=   1.
 NSaved= 1 IEnMin= 1 EnMin= -1.16506131748179     IErMin= 1 ErrMin= 1.65D-02
 ErrMax= 1.65D-02  0.00D+00 EMaxC= 1.00D-01 BMatC= 2.98D-03 BMatP= 2.98D-03
 IDIUse=3 WtCom= 8.35D-01 WtEn= 1.65D-01
 Coeff-Com:  0.100D+01
 Coeff-En:   0.100D+01
 Coeff:      0.100D+01
 Gap=     0.583 Goal=   None    Shift=    0.000
 GapD=    0.583 DampG=2.000 DampE=0.500 DampFc=1.0000 IDamp=-1.
 RMSDP=4.96D-04 MaxDP=8.18D-03              OVMax= 4.86D-02

 Cycle   2  Pass 0  IDiag  1:
 E= -1.16927027948602     Delta-E=       -0.004208962004 Rises=F Damp=F
 DIIS: error= 2.49D-03 at cycle   2 NSaved=   2.
 NSaved= 2 IEnMin= 2 EnMin= -1.16927027948602     IErMin= 2 ErrMin= 2.49D-03
 ErrMax= 2.49D-03  0.00D+00 EMaxC= 1.00D-01 BMatC= 5.62D-05 BMatP= 2.98D-03
 IDIUse=3 WtCom= 9.75D-01 WtEn= 2.49D-02
 Coeff-Com:  0.749D-01 0.925D+00
 Coeff-En:   0.000D+00 0.100D+01
 Coeff:      0.730D-01 0.927D+00
 Gap=     0.571 Goal=   None    Shift=    0.000
 RMSDP=4.80D-05 MaxDP=1.00D-03 DE=-4.21D-03 OVMax= 2.20D-03

 Cycle   3  Pass 0  IDiag  1:
 E= -1.16929558101753     Delta-E=       -0.000025301532 Rises=F Damp=F
 DIIS: error= 3.72D-04 at cycle   3 NSaved=   3.
 NSaved= 3 IEnMin= 3 EnMin= -1.16929558101753     IErMin= 3 ErrMin= 3.72D-04
 ErrMax= 3.72D-04  0.00D+00 EMaxC= 1.00D-01 BMatC= 1.09D-06 BMatP= 5.62D-05
 IDIUse=3 WtCom= 9.96D-01 WtEn= 3.72D-03
 Coeff-Com: -0.120D-01-0.135D+00 0.115D+01
 Coeff-En:   0.000D+00 0.000D+00 0.100D+01
 Coeff:     -0.120D-01-0.134D+00 0.115D+01
 Gap=     0.571 Goal=   None    Shift=    0.000
 RMSDP=5.88D-06 MaxDP=1.00D-04 DE=-2.53D-05 OVMax= 3.04D-04

 Initial convergence to 1.0D-05 achieved.  Increase integral accuracy.
 Cycle   4  Pass 1  IDiag  1:
 E= -1.16948229105200     Delta-E=       -0.000186710034 Rises=F Damp=F
 DIIS: error= 1.11D-03 at cycle   1 NSaved=   1.
 NSaved= 1 IEnMin= 1 EnMin= -1.16948229105200     IErMin= 1 ErrMin= 1.11D-03
 ErrMax= 1.11D-03  0.00D+00 EMaxC= 1.00D-01 BMatC= 1.55D-05 BMatP= 1.55D-05
 IDIUse=3 WtCom= 9.89D-01 WtEn= 1.11D-02
 Coeff-Com:  0.100D+01
 Coeff-En:   0.100D+01
 Coeff:      0.100D+01
 Gap=     0.571 Goal=   None    Shift=    0.000
 RMSDP=5.88D-06 MaxDP=1.00D-04 DE=-1.87D-04 OVMax= 5.31D-04

 Cycle   5  Pass 1  IDiag  1:
 E= -1.16948694660406     Delta-E=       -0.000004655552 Rises=F Damp=F
 DIIS: error= 2.08D-04 at cycle   2 NSaved=   2.
 NSaved= 2 IEnMin= 2 EnMin= -1.16948694660406     IErMin= 2 ErrMin= 2.08D-04
 ErrMax= 2.08D-04  0.00D+00 EMaxC= 1.00D-01 BMatC= 4.14D-07 BMatP= 1.55D-05
 IDIUse=3 WtCom= 9.98D-01 WtEn= 2.08D-03
 Coeff-Com: -0.184D+00 0.118D+01
 Coeff-En:   0.000D+00 0.100D+01
 Coeff:     -0.184D+00 0.118D+01
 Gap=     0.571 Goal=   None    Shift=    0.000
 RMSDP=2.33D-06 MaxDP=3.42D-05 DE=-4.66D-06 OVMax= 1.28D-04

 Cycle   6  Pass 1  IDiag  1:
 E= -1.16948708373379     Delta-E=       -0.000000137130 Rises=F Damp=F
 DIIS: error= 9.63D-06 at cycle   3 NSaved=   3.
 NSaved= 3 IEnMin= 3 EnMin= -1.16948708373379     IErMin= 3 ErrMin= 9.63D-06
 ErrMax= 9.63D-06  0.00D+00 EMaxC= 1.00D-01 BMatC= 1.28D-09 BMatP= 4.14D-07
 IDIUse=1 WtCom= 1.00D+00 WtEn= 0.00D+00
 Coeff-Com:  0.107D-01-0.108D+00 0.110D+01
 Coeff:      0.107D-01-0.108D+00 0.110D+01
 Gap=     0.571 Goal=   None    Shift=    0.000
 RMSDP=1.36D-07 MaxDP=2.07D-06 DE=-1.37D-07 OVMax= 9.14D-06

 Cycle   7  Pass 1  IDiag  1:
 E= -1.16948708416833     Delta-E=       -0.000000000435 Rises=F Damp=F
 DIIS: error= 2.45D-06 at cycle   4 NSaved=   4.
 NSaved= 4 IEnMin= 4 EnMin= -1.16948708416833     IErMin= 4 ErrMin= 2.45D-06
 ErrMax= 2.45D-06  0.00D+00 EMaxC= 1.00D-01 BMatC= 4.06D-11 BMatP= 1.28D-09
 IDIUse=1 WtCom= 1.00D+00 WtEn= 0.00D+00
 Coeff-Com:  0.400D-02-0.182D-01-0.128D+00 0.114D+01
 Coeff:      0.400D-02-0.182D-01-0.128D+00 0.114D+01
 Gap=     0.571 Goal=   None    Shift=    0.000
 DSYEVD-2 returned Info=         121 IAlg= 4 N=    60 NDim=    60 NE2=     1743552 trying  DSYEV.
 RMSDP=4.93D-08 MaxDP=5.60D-07 DE=-4.35D-10 OVMax= 1.06D-06

 Cycle   8  Pass 1  IDiag  1:
 E= -1.16948708417799     Delta-E=       -0.000000000010 Rises=F Damp=F
 DIIS: error= 7.08D-08 at cycle   5 NSaved=   5.
 NSaved= 5 IEnMin= 5 EnMin= -1.16948708417799     IErMin= 5 ErrMin= 7.08D-08
 ErrMax= 7.08D-08  0.00D+00 EMaxC= 1.00D-01 BMatC= 4.76D-14 BMatP= 4.06D-11
 IDIUse=1 WtCom= 1.00D+00 WtEn= 0.00D+00
 Coeff-Com: -0.254D-03 0.142D-02 0.421D-02-0.575D-01 0.105D+01
 Coeff:     -0.254D-03 0.142D-02 0.421D-02-0.575D-01 0.105D+01
 Gap=     0.571 Goal=   None    Shift=    0.000
 RMSDP=3.23D-09 MaxDP=3.85D-08 DE=-9.66D-12 OVMax= 1.01D-07

 SCF Done:  E(RM062X) =  -1.16948708418     A.U. after    8 cycles
            NFock=  8  Conv=0.32D-08     -V/T= 2.0260
 KE= 1.139817077634D+00 PE=-3.643502543028D+00 EE= 6.224843017696D-01
 Leave Link  502 at Sat Apr 17 05:23:43 2021, MaxMem=   104857600 cpu:             727.3 elap:              15.5
 (Enter /s/ls4/users/knvvv/bin/g16sse/l601.exe)
 Copying SCF densities to generalized density rwf, IOpCl= 0 IROHF=0.

 **********************************************************************

            Population analysis using the SCF density.

 **********************************************************************

 Orbital symmetries:
       Occupied  (SGG)
       Virtual   (SGU) (SGG) (SGU) (PIU) (PIU) (SGG) (PIG) (PIG)
                 (SGG) (SGU) (SGU) (DLTG) (DLTG) (PIU) (PIU) (SGG)
                 (PIG) (PIG) (PIU) (PIU) (DLTU) (DLTU) (SGU) (SGG)
                 (PIG) (PIG) (SGU) (SGG) (PHIU) (PHIU) (SGU) (DLTG)
                 (DLTG) (PHIG) (PHIG) (PIG) (PIG) (SGG) (DLTU)
                 (DLTU) (PIU) (PIU) (DLTG) (DLTG) (SGU) (PIG) (PIG)
                 (SGG) (PIU) (PIU) (DLTU) (DLTU) (PIU) (PIU) (SGU)
                 (PIG) (PIG) (SGG) (SGU)
 The electronic state is 1-SGG.
 Alpha  occ. eigenvalues --   -0.49628
 Alpha virt. eigenvalues --    0.07517   0.13577   0.35462   0.41696   0.41696
 Alpha virt. eigenvalues --    0.70043   0.72271   0.72271   0.90581   0.93102
 Alpha virt. eigenvalues --    1.54340   1.73853   1.73853   1.98957   1.98957
 Alpha virt. eigenvalues --    2.19142   2.19783   2.19783   2.35782   2.35782
 Alpha virt. eigenvalues --    2.35975   2.35975   2.51739   2.80445   3.34823
 Alpha virt. eigenvalues --    3.34823   4.46425   4.76897   5.23738   5.23738
 Alpha virt. eigenvalues --    5.82783   5.85075   5.85075   6.24434   6.24434
 Alpha virt. eigenvalues --    6.64575   6.64575   6.94177   7.12258   7.12258
 Alpha virt. eigenvalues --    7.21505   7.21505   7.45665   7.45667   7.94102
 Alpha virt. eigenvalues --    7.99653   7.99653   8.05919   8.20705   8.20705
 Alpha virt. eigenvalues --    8.58198   8.58200   9.07855   9.07855   9.85110
 Alpha virt. eigenvalues --   12.55544  12.55544  13.34980  17.22462
          Condensed to atoms (all electrons):
               1          2
     1  H    0.581178   0.418822
     2  H    0.418822   0.581178
 Mulliken charges:
               1
     1  H    0.000000
     2  H    0.000000
 Sum of Mulliken charges =   0.00000
 Mulliken charges with hydrogens summed into heavy atoms:
               1
 Electronic spatial extent (au):  <R**2>=              5.2003
 Charge=              0.0000 electrons
 Dipole moment (field-independent basis, Debye):
    X=             -0.0000    Y=             -0.0000    Z=              0.0000  Tot=              0.0000
 Quadrupole moment (field-independent basis, Debye-Ang):
   XX=             -2.0925   YY=             -2.0925   ZZ=             -1.4819
   XY=              0.0000   XZ=             -0.0000   YZ=              0.0000
 Traceless Quadrupole moment (field-independent basis, Debye-Ang):
   XX=             -0.2035   YY=             -0.2035   ZZ=              0.4071
   XY=              0.0000   XZ=             -0.0000   YZ=              0.0000
 Octapole moment (field-independent basis, Debye-Ang**2):
  XXX=             -0.0000  YYY=             -0.0000  ZZZ=              0.0000  XYY=             -0.0000
  XXY=             -0.0000  XXZ=             -0.0000  XZZ=             -0.0000  YZZ=             -0.0000
  YYZ=              0.0000  XYZ=              0.0000
 Hexadecapole moment (field-independent basis, Debye-Ang**3):
 XXXX=             -2.1439 YYYY=             -2.1439 ZZZZ=             -2.9091 XXXY=              0.0000
 XXXZ=              0.0000 YYYX=              0.0000 YYYZ=              0.0000 ZZZX=              0.0000
 ZZZY=              0.0000 XXYY=             -0.7146 XXZZ=             -0.8609 YYZZ=             -0.8609
 XXYZ=              0.0000 YYXZ=              0.0000 ZZXY=              0.0000
 N-N= 7.117140794459D-01 E-N=-3.643502554872D+00  KE= 1.139817077634D+00
 No NMR shielding tensors so no spin-rotation constants.
 Leave Link  601 at Sat Apr 17 05:23:45 2021, MaxMem=   104857600 cpu:              58.9 elap:               1.3
 (Enter /s/ls4/users/knvvv/bin/g16sse/l801.exe)
 DoSCS=F DFT=T ScalE2(SS,OS)=  1.000000  1.000000
 Range of M.O.s used for correlation:     1    60
 NBasis=    60 NAE=     1 NBE=     1 NFC=     0 NFV=     0
 NROrb=     60 NOA=     1 NOB=     1 NVA=    59 NVB=    59

 **** Warning!!: The largest alpha MO coefficient is  0.24468642D+02

 Leave Link  801 at Sat Apr 17 05:23:45 2021, MaxMem=   104857600 cpu:               4.1 elap:               0.1
 (Enter /s/ls4/users/knvvv/bin/g16sse/l914.exe)
 RHF ground state
 Doing stability rather than CIS.
 Keep R1 and R2 ints in memory in symmetry-blocked form, NReq=100744901.
 FoFCou: FMM=F IPFlag=           0 FMFlag=           0 FMFlg1=           0
         NFxFlg=           0 DoJE=F BraDBF=F KetDBF=F FulRan=T
         wScrn=  0.000000 ICntrl=       600 IOpCl=  0 I1Cent=           0 NGrid=           0
         NMat0=    1 NMatS0=   1830 NMatT0=    0 NMatD0=    1 NMtDS0=    0 NMtDT0=    0
 Petite list used in FoFCou.
 MDV=   104857600 DFT=T DoStab=T Mixed=T DoRPA=F DoScal=F NonHer=F
 Making orbital integer symmetry assigments:
 Orbital symmetries:
       Occupied  (SGG)
       Virtual   (SGU) (SGG) (SGU) (PIU) (PIU) (SGG) (PIG) (PIG)
                 (SGG) (SGU) (SGU) (DLTG) (DLTG) (PIU) (PIU) (SGG)
                 (PIG) (PIG) (PIU) (PIU) (DLTU) (DLTU) (SGU) (SGG)
                 (PIG) (PIG) (SGU) (SGG) (PHIU) (PHIU) (SGU) (DLTG)
                 (DLTG) (PHIG) (PHIG) (PIG) (PIG) (SGG) (DLTU)
                 (DLTU) (PIU) (PIU) (DLTG) (DLTG) (SGU) (PIG) (PIG)
                 (SGG) (PIU) (PIU) (DLTU) (DLTU) (PIU) (PIU) (SGU)
                 (PIG) (PIG) (SGG) (SGU)
    48 initial guesses have been made.
 Convergence on wavefunction:    0.001000000000000
 Davidson Disk Diagonalization:  ConvIn= 1.00D-03 SkipCon=T Conv= 1.00D-03.
 Max sub-space:   236 roots to seek:    48 dimension of matrix:          118
 Iteration     1 Dimension    48 NMult     0 NNew     48
 CISAX will form    48 AO SS matrices at one time.
 NMat=    48 NSing=    24 JSym2X= 2.
 New state      1 was old state      2
 Excitation Energies [eV] at current iteration:
 Root      1 :    10.221028809527280
 Root      2 :    13.253168722351400
 Root      3 :    13.303616874672880
 Root      4 :    15.572561211352160
 Root      5 :    17.694457447068280
 Root      6 :    17.934807210068460
 Root      7 :    17.934807210068700
 Root      8 :    22.367211282501770
 Root      9 :    22.367211282501980
 Root     10 :    23.063102359347690
 Root     11 :    27.329769169891650
 Root     12 :    27.907616667946650
 Root     13 :    27.907616667947160
 Root     14 :    28.044084228708940
 Root     15 :    28.044084228709430
 Root     16 :    28.437539201935160
 Root     17 :    31.858378072956770
 Root     18 :    33.949126422231540
 Root     19 :    34.284861182049010
 Root     20 :    37.659468941925460
 Root     21 :    49.321587355453230
 Root     22 :    53.645108714401510
 Root     23 :    54.249728524167150
 Root     24 :    54.249778417330620
 Root     25 :    54.507487491891790
 Root     26 :    54.507538226191730
 Root     27 :    62.952085575228180
 Root     28 :    62.952085575228640
 Root     29 :    65.121888871688810
 Root     30 :    65.121888871689290
 Root     31 :    66.348842343526730
 Root     32 :    66.348842343527950
 Root     33 :    67.021672647219080
 Root     34 :    67.021672647220750
 Root     35 :    67.177324777667290
 Root     36 :    67.551441692980450
 Root     37 :    67.848859042574770
 Root     38 :    67.848866213899870
 Root     39 :    68.367697044584700
 Root     40 :    68.367697044584790
 Root     41 :    68.778075610389460
 Root     42 :    68.778082679154170
 Root     43 :    68.990319836632540
 Root     44 :    68.990319836632620
 Root     45 :    72.827971020704420
 Root     46 :    74.133271076632200
 Root     47 :    91.423663055080980
 Root     48 :    91.850804544999150
 Iteration     2 Dimension    94 NMult    48 NNew     46
 CISAX will form    46 AO SS matrices at one time.
 NMat=    46 NSing=    23 JSym2X= 2.
 Root      1 not converged, maximum delta is    0.021133117358379
 Excitation Energies [eV] at current iteration:
 Root      1 :     9.856998840160607   Change is   -0.364029969366677
 Root      2 :    13.213500231889110   Change is   -0.039668490462288
 Root      3 :    13.297628297405720   Change is   -0.005988577267163
 Root      4 :    15.565012765870370   Change is   -0.007548445481795
 Root      5 :    17.448063738089420   Change is   -0.246393708978860
 Root      6 :    17.570096797223490   Change is   -0.364710412844966
 Root      7 :    17.570096797223660   Change is   -0.364710412845048
 Root      8 :    22.276144515410700   Change is   -0.091066767091075
 Root      9 :    22.276144515410840   Change is   -0.091066767091142
 Root     10 :    22.909873823390510   Change is   -0.153228535957183
 Root     11 :    27.157686261394850   Change is   -0.172082908496805
 Root     12 :    27.773983225714860   Change is   -0.133633442231792
 Root     13 :    27.773983225714900   Change is   -0.133633442232257
 Root     14 :    27.901162798739850   Change is   -0.142921429969090
 Root     15 :    27.901162798740260   Change is   -0.142921429969174
 Root     16 :    28.316189194949410   Change is   -0.121350006985756
 Root     17 :    31.826869886107780   Change is   -0.031508186848992
 Root     18 :    33.630213399339520   Change is   -0.318913022892022
 Root     19 :    34.146353601440230   Change is   -0.138507580608775
 Root     20 :    37.446915173258350   Change is   -0.212553768667108
 Root     21 :    47.291924045572220   Change is   -2.029663309881010
 Root     22 :    52.524142445408320   Change is   -1.120966268993184
 Root     23 :    54.205501773240800   Change is   -0.044226750926351
 Root     24 :    54.205533791967320   Change is   -0.044244625363311
 Root     25 :    54.492352412466990   Change is   -0.015135079424813
 Root     26 :    54.492393540202390   Change is   -0.015144685989345
 Root     27 :    60.078158886692560   Change is   -2.873926688536089
 Root     28 :    60.078158886692580   Change is   -2.873926688535605
 Root     29 :    63.469381890664400   Change is   -1.652506981024401
 Root     30 :    63.469381890664900   Change is   -1.652506981024401
 Root     31 :    65.506111031338320   Change is   -0.842731312188403
 Root     32 :    65.506111031339560   Change is   -0.842731312188391
 Root     33 :    66.177876223480920   Change is   -0.843796423738164
 Root     34 :    66.177876223482470   Change is   -0.843796423738285
 Root     35 :    66.368264193116430   Change is   -0.809060584550860
 Root     36 :    67.047704982287740   Change is   -0.503736710692699
 Root     37 :    67.687919259545960   Change is   -0.160939783028801
 Root     38 :    67.687928518767410   Change is   -0.160937695132468
 Root     39 :    68.009104493503670   Change is   -0.358592551081023
 Root     40 :    68.009104493503800   Change is   -0.358592551080987
 Root     41 :    68.649283646994900   Change is   -0.128791963394565
 Root     42 :    68.649292444817160   Change is   -0.128790234337012
 Root     43 :    68.792860664663250   Change is   -0.197459171969275
 Root     44 :    68.792860664663320   Change is   -0.197459171969312
 Root     45 :    72.575370232185680   Change is   -0.252600788518755
 Root     46 :    73.900667641334880   Change is   -0.232603435297327
 Root     47 :    90.171253315692370   Change is   -1.252409739388618
 Root     48 :    90.745940767818170   Change is   -1.104863777180980
 Convergence achieved on expansion vectors.
 ***********************************************************************
 Stability analysis using <AA,BB:AA,BB> singles matrix:
 ***********************************************************************
 1PDM for each excited state written to RWF  633
 Ground to excited state transition densities written to RWF  633

 Eigenvectors of the stability matrix:
 
 Eigenvector   1:      Triplet-SGU  Eigenvalue= 0.3622380  <S**2>=2.000
       1 ->  2         0.62253
       1 ->  4         0.31861
 
 Eigenvector   2:      Singlet-SGU  Eigenvalue= 0.4855872  <S**2>=0.000
       1 ->  2         0.70138
 
 Eigenvector   3:      Triplet-SGG  Eigenvalue= 0.4886788  <S**2>=2.000
       1 ->  3         0.69764
 
 Eigenvector   4:      Singlet-SGG  Eigenvalue= 0.5720037  <S**2>=0.000
       1 ->  3         0.70418
 
 Eigenvector   5:      Triplet-SGU  Eigenvalue= 0.6412045  <S**2>=2.000
       1 ->  2        -0.33232
       1 ->  4         0.61436
 
 Excited state symmetry could not be determined.
 Eigenvector   6:      Triplet-?Sym  Eigenvalue= 0.6456892  <S**2>=2.000
       1 ->  5         0.67867
       1 ->  6        -0.19271
 The wavefunction is stable under the perturbations considered.
 Leave Link  914 at Sat Apr 17 05:23:54 2021, MaxMem=   104857600 cpu:             455.4 elap:               9.7
 (Enter /s/ls4/users/knvvv/bin/g16sse/l508.exe)
 The wavefunction is already stable.
 Leave Link  508 at Sat Apr 17 05:23:55 2021, MaxMem=   104857600 cpu:               2.2 elap:               0.1
 (Enter /s/ls4/users/knvvv/bin/g16sse/l601.exe)
 Copying SCF densities to generalized density rwf, IOpCl= 0 IROHF=0.

 **********************************************************************

            Population analysis using the SCF density.

 **********************************************************************

 Orbital symmetries:
       Occupied  (SGG)
       Virtual   (SGU) (SGG) (SGU) (PIU) (PIU) (SGG) (PIG) (PIG)
                 (SGG) (SGU) (SGU) (DLTG) (DLTG) (PIU) (PIU) (SGG)
                 (PIG) (PIG) (PIU) (PIU) (DLTU) (DLTU) (SGU) (SGG)
                 (PIG) (PIG) (SGU) (SGG) (PHIU) (PHIU) (SGU) (DLTG)
                 (DLTG) (PHIG) (PHIG) (PIG) (PIG) (SGG) (DLTU)
                 (DLTU) (PIU) (PIU) (DLTG) (DLTG) (SGU) (PIG) (PIG)
                 (SGG) (PIU) (PIU) (DLTU) (DLTU) (PIU) (PIU) (SGU)
                 (PIG) (PIG) (SGG) (SGU)
 The electronic state is 1-SGG.
 Alpha  occ. eigenvalues --   -0.49628
 Alpha virt. eigenvalues --    0.07517   0.13577   0.35462   0.41696   0.41696
 Alpha virt. eigenvalues --    0.70043   0.72271   0.72271   0.90581   0.93102
 Alpha virt. eigenvalues --    1.54340   1.73853   1.73853   1.98957   1.98957
 Alpha virt. eigenvalues --    2.19142   2.19783   2.19783   2.35782   2.35782
 Alpha virt. eigenvalues --    2.35975   2.35975   2.51739   2.80445   3.34823
 Alpha virt. eigenvalues --    3.34823   4.46425   4.76897   5.23738   5.23738
 Alpha virt. eigenvalues --    5.82783   5.85075   5.85075   6.24434   6.24434
 Alpha virt. eigenvalues --    6.64575   6.64575   6.94177   7.12258   7.12258
 Alpha virt. eigenvalues --    7.21505   7.21505   7.45665   7.45667   7.94102
 Alpha virt. eigenvalues --    7.99653   7.99653   8.05919   8.20705   8.20705
 Alpha virt. eigenvalues --    8.58198   8.58200   9.07855   9.07855   9.85110
 Alpha virt. eigenvalues --   12.55544  12.55544  13.34980  17.22462
          Condensed to atoms (all electrons):
               1          2
     1  H    0.581178   0.418822
     2  H    0.418822   0.581178
 Mulliken charges:
               1
     1  H    0.000000
     2  H    0.000000
 Sum of Mulliken charges =   0.00000
 Mulliken charges with hydrogens summed into heavy atoms:
               1
 Electronic spatial extent (au):  <R**2>=              5.2003
 Charge=              0.0000 electrons
 Dipole moment (field-independent basis, Debye):
    X=             -0.0000    Y=             -0.0000    Z=              0.0000  Tot=              0.0000
 Quadrupole moment (field-independent basis, Debye-Ang):
   XX=             -2.0925   YY=             -2.0925   ZZ=             -1.4819
   XY=              0.0000   XZ=             -0.0000   YZ=              0.0000
 Traceless Quadrupole moment (field-independent basis, Debye-Ang):
   XX=             -0.2035   YY=             -0.2035   ZZ=              0.4071
   XY=              0.0000   XZ=             -0.0000   YZ=              0.0000
 Octapole moment (field-independent basis, Debye-Ang**2):
  XXX=             -0.0000  YYY=             -0.0000  ZZZ=              0.0000  XYY=             -0.0000
  XXY=             -0.0000  XXZ=             -0.0000  XZZ=             -0.0000  YZZ=             -0.0000
  YYZ=              0.0000  XYZ=              0.0000
 Hexadecapole moment (field-independent basis, Debye-Ang**3):
 XXXX=             -2.1439 YYYY=             -2.1439 ZZZZ=             -2.9091 XXXY=              0.0000
 XXXZ=              0.0000 YYYX=              0.0000 YYYZ=              0.0000 ZZZX=              0.0000
 ZZZY=              0.0000 XXYY=             -0.7146 XXZZ=             -0.8609 YYZZ=             -0.8609
 XXYZ=              0.0000 YYXZ=              0.0000 ZZXY=              0.0000
 N-N= 7.117140794459D-01 E-N=-3.643502554872D+00  KE= 1.139817077634D+00
 No NMR shielding tensors so no spin-rotation constants.
 Leave Link  601 at Sat Apr 17 05:23:56 2021, MaxMem=   104857600 cpu:              49.1 elap:               1.1
 (Enter /s/ls4/users/knvvv/bin/g16sse/l9999.exe)

 Test job not archived.
 1\1\GINC-N155\Stability\RM062X\def2QZVP\H2\KNVVV\17-Apr-2021\0\\#P M06
 2X/Def2QZVP Integral=UltraFineGrid SCF=NoSymm Stable=(RExt, Opt) IOp(1
 /33=1)\\Database calculations.\\0,1\H,0,0.,0.,-0.3717625\H,0,0.,0.,0.3
 717625\\Version=ES64L-G16RevA.03\State=1-SGG\HF=-1.1694871\RMSD=3.229e
 -09\Dipole=0.,0.,0.\Quadrupole=-0.1513299,-0.1513299,0.3026598,0.,0.,0
 .\PG=D*H [C*(H1.H1)]\\@


 OF ALL THE WONDERS OF THE UNIVERSE, THE GREATEST IS MAN.

                                    -- ARISTOTLE
 Job cpu time:       0 days  0 hours 25 minutes 33.1 seconds.
 Elapsed time:       0 days  0 hours  0 minutes 33.1 seconds.
 File lengths (MBytes):  RWF=      6 Int=      0 D2E=      0 Chk=      2 Scr=      1
 Normal termination of Gaussian 16 at Sat Apr 17 05:23:56 2021.
