 Entering Gaussian System, Link 0=/s/ls4/users/knvvv/bin/g16sse/g16
 Input=data/database/M062X--def2-QZVP--MB16-43_LiH.gjf
 Output=data/database/M062X--def2-QZVP--MB16-43_LiH.log
 Initial command:
 /s/ls4/users/knvvv/bin/g16sse/l1.exe "/s/ls4/users/knvvv/bin/scratch/Gau-46085.inp" -scrdir="/s/ls4/users/knvvv/bin/scratch/"
 Entering Link 1 = /s/ls4/users/knvvv/bin/g16sse/l1.exe PID=     46086.
  
 Copyright (c) 1988,1990,1992,1993,1995,1998,2003,2009,2016,
            Gaussian, Inc.  All Rights Reserved.
  
 This is part of the Gaussian(R) 16 program.  It is based on
 the Gaussian(R) 09 system (copyright 2009, Gaussian, Inc.),
 the Gaussian(R) 03 system (copyright 2003, Gaussian, Inc.),
 the Gaussian(R) 98 system (copyright 1998, Gaussian, Inc.),
 the Gaussian(R) 94 system (copyright 1995, Gaussian, Inc.),
 the Gaussian 92(TM) system (copyright 1992, Gaussian, Inc.),
 the Gaussian 90(TM) system (copyright 1990, Gaussian, Inc.),
 the Gaussian 88(TM) system (copyright 1988, Gaussian, Inc.),
 the Gaussian 86(TM) system (copyright 1986, Carnegie Mellon
 University), and the Gaussian 82(TM) system (copyright 1983,
 Carnegie Mellon University). Gaussian is a federally registered
 trademark of Gaussian, Inc.
  
 This software contains proprietary and confidential information,
 including trade secrets, belonging to Gaussian, Inc.
  
 This software is provided under written license and may be
 used, copied, transmitted, or stored only in accord with that
 written license.
  
 The following legend is applicable only to US Government
 contracts under FAR:
  
                    RESTRICTED RIGHTS LEGEND
  
 Use, reproduction and disclosure by the US Government is
 subject to restrictions as set forth in subparagraphs (a)
 and (c) of the Commercial Computer Software - Restricted
 Rights clause in FAR 52.227-19.
  
 Gaussian, Inc.
 340 Quinnipiac St., Bldg. 40, Wallingford CT 06492
  
  
 ---------------------------------------------------------------
 Warning -- This program may not be used in any manner that
 competes with the business of Gaussian, Inc. or will provide
 assistance to any competitor of Gaussian, Inc.  The licensee
 of this program is prohibited from giving any competitor of
 Gaussian, Inc. access to this program.  By using this program,
 the user acknowledges that Gaussian, Inc. is engaged in the
 business of creating and licensing software in the field of
 computational chemistry and represents and warrants to the
 licensee that it is not a competitor of Gaussian, Inc. and that
 it will not use this program in any manner prohibited above.
 ---------------------------------------------------------------
  

 Cite this work as:
 Gaussian 16, Revision A.03,
 M. J. Frisch, G. W. Trucks, H. B. Schlegel, G. E. Scuseria, 
 M. A. Robb, J. R. Cheeseman, G. Scalmani, V. Barone, 
 G. A. Petersson, H. Nakatsuji, X. Li, M. Caricato, A. V. Marenich, 
 J. Bloino, B. G. Janesko, R. Gomperts, B. Mennucci, H. P. Hratchian, 
 J. V. Ortiz, A. F. Izmaylov, J. L. Sonnenberg, D. Williams-Young, 
 F. Ding, F. Lipparini, F. Egidi, J. Goings, B. Peng, A. Petrone, 
 T. Henderson, D. Ranasinghe, V. G. Zakrzewski, J. Gao, N. Rega, 
 G. Zheng, W. Liang, M. Hada, M. Ehara, K. Toyota, R. Fukuda, 
 J. Hasegawa, M. Ishida, T. Nakajima, Y. Honda, O. Kitao, H. Nakai, 
 T. Vreven, K. Throssell, J. A. Montgomery, Jr., J. E. Peralta, 
 F. Ogliaro, M. J. Bearpark, J. J. Heyd, E. N. Brothers, K. N. Kudin, 
 V. N. Staroverov, T. A. Keith, R. Kobayashi, J. Normand, 
 K. Raghavachari, A. P. Rendell, J. C. Burant, S. S. Iyengar, 
 J. Tomasi, M. Cossi, J. M. Millam, M. Klene, C. Adamo, R. Cammi, 
 J. W. Ochterski, R. L. Martin, K. Morokuma, O. Farkas, 
 J. B. Foresman, and D. J. Fox, Gaussian, Inc., Wallingford CT, 2016.
 
 ******************************************
 Gaussian 16:  ES64L-G16RevA.03 25-Dec-2016
                17-Apr-2021 
 ******************************************
 %RWF=temp12_36503,70GB
 %nprocshared=48
 Will use up to   48 processors via shared memory.
 Default route: MaxDisk=80GB
 ----------------------------------------------------------------------
 #P M062X/Def2QZVP Integral=UltraFineGrid SCF=NoSymm Stable=(RExt, Opt)
  IOp(1/33=1)
 ----------------------------------------------------------------------
 1/33=1,38=1,172=1/1;
 2/12=2,17=6,18=5,40=1/2;
 3/5=45,7=101,11=2,25=1,30=1,74=-55,75=-5/1,2,3;
 4/9=2/1;
 5/5=2,38=5/2;
 6/7=2,8=2,9=2,10=2,28=1/1;
 8/6=1,10=90,11=11/1;
 9/8=-3,42=1,46=1/14;
 5/5=2,8=3,17=40,38=5/8(-2);
 6/7=2,8=2,9=2,10=2,28=1/1;
 99/5=1,9=1/99;
 Leave Link    1 at Sat Apr 17 04:54:58 2021, MaxMem=           0 cpu:              53.4 elap:               1.2
 (Enter /s/ls4/users/knvvv/bin/g16sse/l101.exe)
 ONIOM data not found on unit 2.
 ----------------------
 Database calculations.
 ----------------------
 TstMul:  ICh=     0
 TstMul:  Mul=     1
 TstMul:  ICh=     0
 TstMul:  Mul=     1
 Symbolic Z-matrix:
 Charge =  0 Multiplicity = 1
 Li                    0.        0.       -0.79798 
 H                     0.        0.        0.79798 
 
 RdStrC is calling ZToCFu for IStruc=1 NZ=     2.
 PrtBox:  NBox=     1 Levels=  1 BoxLen=    8.00 SMaxX=        3.02
          Shift=            0.000000            0.000000            1.507967
 Box      1 Number                   0 centers from      1 to      2:
 After GenITR:
 ITRead=  0  0
 MicOpt= -1 -1
 ITRead=  0  0
 MicOpt= -1 -1
 NAtoms=      2 NQM=        2 NQMF=       0 NMMI=      0 NMMIF=      0
                NMic=       0 NMicF=      0.
                    Isotopes and Nuclear Properties:
 (Nuclear quadrupole moments (NQMom) in fm**2, nuclear magnetic moments (NMagM)
  in nuclear magnetons)

  Atom         1           2
 IAtWgt=           7           1
 AtmWgt=   7.0160045   1.0078250
 NucSpn=           3           1
 AtZEff=  -0.0000000  -0.0000000
 NQMom=   -4.0100000   0.0000000
 NMagM=    3.2564240   2.7928460
 AtZNuc=   3.0000000   1.0000000
 No MM parameters found.
 Leave Link  101 at Sat Apr 17 04:54:58 2021, MaxMem=   104857600 cpu:               6.5 elap:               0.2
 (Enter /s/ls4/users/knvvv/bin/g16sse/l202.exe)
                          Input orientation:                          
 ---------------------------------------------------------------------
 Center     Atomic      Atomic             Coordinates (Angstroms)
 Number     Number       Type             X           Y           Z
 ---------------------------------------------------------------------
      1          3           0        0.000000    0.000000   -0.797982
      2          1           0        0.000000    0.000000    0.797982
 ---------------------------------------------------------------------
 Stoichiometry    HLi
 Framework group  C*V[C*(HLi)]
 Deg. of freedom     1
 Full point group                 C*V     NOp   4
 Largest Abelian subgroup         C2V     NOp   4
 Largest concise Abelian subgroup C1      NOp   1
                         Standard orientation:                         
 ---------------------------------------------------------------------
 Center     Atomic      Atomic             Coordinates (Angstroms)
 Number     Number       Type             X           Y           Z
 ---------------------------------------------------------------------
      1          3           0        0.000000    0.000000    0.398991
      2          1           0        0.000000    0.000000   -1.196973
 ---------------------------------------------------------------------
 Rotational constants (GHZ):           0.0000000         225.1529853         225.1529853
 Leave Link  202 at Sat Apr 17 04:54:58 2021, MaxMem=   104857600 cpu:               6.1 elap:               0.2
 (Enter /s/ls4/users/knvvv/bin/g16sse/l301.exe)
 Standard basis: def2QZVP (5D, 7F)
 Ernie: Thresh=  0.10000D-02 Tol=  0.10000D-05 Strict=F.
 There are    35 symmetry adapted cartesian basis functions of A1  symmetry.
 There are     6 symmetry adapted cartesian basis functions of A2  symmetry.
 There are    17 symmetry adapted cartesian basis functions of B1  symmetry.
 There are    17 symmetry adapted cartesian basis functions of B2  symmetry.
 There are    29 symmetry adapted basis functions of A1  symmetry.
 There are     6 symmetry adapted basis functions of A2  symmetry.
 There are    15 symmetry adapted basis functions of B1  symmetry.
 There are    15 symmetry adapted basis functions of B2  symmetry.
    65 basis functions,    93 primitive gaussians,    75 cartesian basis functions
     2 alpha electrons        2 beta electrons
       nuclear repulsion energy         0.9947164427 Hartrees.
 IExCor= 4336 DFT=T Ex+Corr=M062X ExCW=0 ScaHFX=  0.540000
 ScaDFX=  1.000000  1.000000  1.000000  1.000000 ScalE2=  1.000000  1.000000
 IRadAn=      5 IRanWt=     -1 IRanGd=            0 ICorTp=0 IEmpDi=  4
 NAtoms=    2 NActive=    2 NUniq=    2 SFac= 1.00D+00 NAtFMM=   60 NAOKFM=F Big=F
 Integral buffers will be    131072 words long.
 Raffenetti 2 integral format.
 Two-electron integral symmetry is turned on.
 Leave Link  301 at Sat Apr 17 04:54:59 2021, MaxMem=   104857600 cpu:               6.2 elap:               0.2
 (Enter /s/ls4/users/knvvv/bin/g16sse/l302.exe)
 NPDir=0 NMtPBC=     1 NCelOv=     1 NCel=       1 NClECP=     1 NCelD=      1
         NCelK=      1 NCelE2=     1 NClLst=     1 CellRange=     0.0.
 One-electron integrals computed using PRISM.
 One-electron integral symmetry used in STVInt
 PrsmSu:  requested number of processors reduced to:  13 ShMem   1 Linda.
   4 Symmetry operations used in ECPInt.
 ECPInt:  NShTT=     276 NPrTT=     749 LenC2=     277 LenP2D=     732.
 LDataN:  DoStor=T MaxTD1= 6 Len=  172
 NBasis=    65 RedAO= T EigKep=  3.03D-03  NBF=    29     6    15    15
 NBsUse=    65 1.00D-06 EigRej= -1.00D+00 NBFU=    29     6    15    15
 Precomputing XC quadrature grid using
 IXCGrd= 4 IRadAn=           5 IRanWt=          -1 IRanGd=           0 AccXCQ= 0.00D+00.
 Generated NRdTot=       0 NPtTot=           0 NUsed=           0 NTot=          32
 NSgBfM=    75    75    75    75    75 MxSgAt=     2 MxSgA2=     2.
 Leave Link  302 at Sat Apr 17 04:55:00 2021, MaxMem=   104857600 cpu:              86.6 elap:               1.9
 (Enter /s/ls4/users/knvvv/bin/g16sse/l303.exe)
 DipDrv:  MaxL=1.
 Leave Link  303 at Sat Apr 17 04:55:01 2021, MaxMem=   104857600 cpu:              14.0 elap:               0.3
 (Enter /s/ls4/users/knvvv/bin/g16sse/l401.exe)
 SCF N**3 symmetry information disabled.
 ExpMin= 2.05D-02 ExpMax= 1.49D+04 ExpMxC= 4.63D+01 IAcc=3 IRadAn=         5 AccDes= 0.00D+00
 Harris functional with IExCor= 1009 and IRadAn=       5 diagonalized for initial guess.
 HarFok:  IExCor= 1009 AccDes= 0.00D+00 IRadAn=         5 IDoV= 1 UseB2=F ITyADJ=14
 ICtDFT=  3500011 ScaDFX=  1.000000  1.000000  1.000000  1.000000
 FoFCou: FMM=F IPFlag=           0 FMFlag=      100000 FMFlg1=           0
         NFxFlg=           0 DoJE=T BraDBF=F KetDBF=T FulRan=T
         wScrn=  0.000000 ICntrl=       500 IOpCl=  0 I1Cent=   200000004 NGrid=           0
         NMat0=    1 NMatS0=      1 NMatT0=    0 NMatD0=    1 NMtDS0=    0 NMtDT0=    0
 Petite list used in FoFCou.
 Harris En= -8.10297961304077    
 JPrj=0 DoOrth=F DoCkMO=F.
 Initial guess orbital symmetries:
       Occupied  (SG) (SG)
       Virtual   (SG) (PI) (PI) (SG) (SG) (PI) (PI) (SG) (PI) (PI)
                 (DLTA) (DLTA) (SG) (SG) (SG) (PI) (PI) (SG) (PI)
                 (PI) (DLTA) (DLTA) (PHI) (PHI) (SG) (PI) (PI)
                 (DLTA) (DLTA) (SG) (PI) (PI) (SG) (SG) (SG) (DLTA)
                 (DLTA) (PI) (PI) (SG) (PI) (PI) (SG) (SG) (PI)
                 (PI) (PHI) (PHI) (DLTA) (DLTA) (PI) (PI) (SG)
                 (SG) (PI) (PI) (SG) (DLTA) (DLTA) (PI) (PI) (SG)
                 (SG)
 The electronic state of the initial guess is 1-SG.
 Leave Link  401 at Sat Apr 17 04:55:02 2021, MaxMem=   104857600 cpu:              62.3 elap:               1.4
 (Enter /s/ls4/users/knvvv/bin/g16sse/l502.exe)
 Keep R1 ints in memory in symmetry-blocked form, NReq=45366857.
 FoFCou: FMM=F IPFlag=           0 FMFlag=           0 FMFlg1=           0
         NFxFlg=           0 DoJE=F BraDBF=F KetDBF=F FulRan=T
         wScrn=  0.000000 ICntrl=       600 IOpCl=  0 I1Cent=           0 NGrid=           0
         NMat0=    1 NMatS0=   2145 NMatT0=    0 NMatD0=    1 NMtDS0=    0 NMtDT0=    0
 Petite list used in FoFCou.
 Closed shell SCF:
 Using DIIS extrapolation, IDIIS=  1040.
 NGot=   104857600 LenX=   104236430 LenY=   104230364
 Requested convergence on RMS density matrix=1.00D-08 within 128 cycles.
 Requested convergence on MAX density matrix=1.00D-06.
 Requested convergence on             energy=1.00D-06.
 No special actions if energy rises.

 Cycle   1  Pass 1  IDiag  1:
 E= -8.03607203175306    
 DIIS: error= 2.41D-02 at cycle   1 NSaved=   1.
 NSaved= 1 IEnMin= 1 EnMin= -8.03607203175306     IErMin= 1 ErrMin= 2.41D-02
 ErrMax= 2.41D-02  0.00D+00 EMaxC= 1.00D-01 BMatC= 1.57D-02 BMatP= 1.57D-02
 IDIUse=3 WtCom= 7.59D-01 WtEn= 2.41D-01
 Coeff-Com:  0.100D+01
 Coeff-En:   0.100D+01
 Coeff:      0.100D+01
 Gap=     0.113 Goal=   None    Shift=    0.000
 GapD=    0.113 DampG=1.000 DampE=0.500 DampFc=0.5000 IDamp=-1.
 Damping current iteration by 5.00D-01
 RMSDP=2.77D-03 MaxDP=4.89D-02              OVMax= 2.30D-01

 Cycle   2  Pass 1  IDiag  1:
 E= -8.05486241471984     Delta-E=       -0.018790382967 Rises=F Damp=T
 DIIS: error= 9.38D-03 at cycle   2 NSaved=   2.
 NSaved= 2 IEnMin= 2 EnMin= -8.05486241471984     IErMin= 2 ErrMin= 9.38D-03
 ErrMax= 9.38D-03  0.00D+00 EMaxC= 1.00D-01 BMatC= 2.16D-03 BMatP= 1.57D-02
 IDIUse=3 WtCom= 9.06D-01 WtEn= 9.38D-02
 Coeff-Com: -0.547D+00 0.155D+01
 Coeff-En:   0.000D+00 0.100D+01
 Coeff:     -0.495D+00 0.150D+01
 Gap=     0.194 Goal=   None    Shift=    0.000
 RMSDP=8.78D-04 MaxDP=1.75D-02 DE=-1.88D-02 OVMax= 4.46D-02

 Cycle   3  Pass 1  IDiag  1:
 E= -8.07118563332987     Delta-E=       -0.016323218610 Rises=F Damp=F
 DIIS: error= 1.32D-03 at cycle   3 NSaved=   3.
 NSaved= 3 IEnMin= 3 EnMin= -8.07118563332987     IErMin= 3 ErrMin= 1.32D-03
 ErrMax= 1.32D-03  0.00D+00 EMaxC= 1.00D-01 BMatC= 3.98D-05 BMatP= 2.16D-03
 IDIUse=3 WtCom= 9.87D-01 WtEn= 1.32D-02
 Coeff-Com:  0.483D-02 0.544D-01 0.941D+00
 Coeff-En:   0.000D+00 0.000D+00 0.100D+01
 Coeff:      0.477D-02 0.537D-01 0.942D+00
 Gap=     0.197 Goal=   None    Shift=    0.000
 RMSDP=2.32D-04 MaxDP=4.72D-03 DE=-1.63D-02 OVMax= 3.75D-03

 Cycle   4  Pass 1  IDiag  1:
 E= -8.07121991101370     Delta-E=       -0.000034277684 Rises=F Damp=F
 DIIS: error= 1.80D-04 at cycle   4 NSaved=   4.
 NSaved= 4 IEnMin= 4 EnMin= -8.07121991101370     IErMin= 4 ErrMin= 1.80D-04
 ErrMax= 1.80D-04  0.00D+00 EMaxC= 1.00D-01 BMatC= 9.91D-07 BMatP= 3.98D-05
 IDIUse=3 WtCom= 9.98D-01 WtEn= 1.80D-03
 Coeff-Com:  0.265D-01-0.631D-01 0.455D-01 0.991D+00
 Coeff-En:   0.000D+00 0.000D+00 0.000D+00 0.100D+01
 Coeff:      0.265D-01-0.630D-01 0.454D-01 0.991D+00
 Gap=     0.198 Goal=   None    Shift=    0.000
 RMSDP=5.21D-05 MaxDP=1.03D-03 DE=-3.43D-05 OVMax= 1.62D-03

 Cycle   5  Pass 1  IDiag  1:
 E= -8.07122210098833     Delta-E=       -0.000002189975 Rises=F Damp=F
 DIIS: error= 4.54D-05 at cycle   5 NSaved=   5.
 NSaved= 5 IEnMin= 5 EnMin= -8.07122210098833     IErMin= 5 ErrMin= 4.54D-05
 ErrMax= 4.54D-05  0.00D+00 EMaxC= 1.00D-01 BMatC= 5.16D-08 BMatP= 9.91D-07
 IDIUse=1 WtCom= 1.00D+00 WtEn= 0.00D+00
 Coeff-Com:  0.125D-02-0.179D-02 0.109D-01-0.109D+00 0.110D+01
 Coeff:      0.125D-02-0.179D-02 0.109D-01-0.109D+00 0.110D+01
 Gap=     0.199 Goal=   None    Shift=    0.000
 RMSDP=8.02D-06 MaxDP=1.31D-04 DE=-2.19D-06 OVMax= 5.69D-04

 Cycle   6  Pass 1  IDiag  1:
 E= -8.07122231821302     Delta-E=       -0.000000217225 Rises=F Damp=F
 DIIS: error= 1.26D-05 at cycle   6 NSaved=   6.
 NSaved= 6 IEnMin= 6 EnMin= -8.07122231821302     IErMin= 6 ErrMin= 1.26D-05
 ErrMax= 1.26D-05  0.00D+00 EMaxC= 1.00D-01 BMatC= 3.54D-09 BMatP= 5.16D-08
 IDIUse=1 WtCom= 1.00D+00 WtEn= 0.00D+00
 Coeff-Com: -0.192D-03 0.696D-03-0.602D-03-0.187D-01-0.161D+00 0.118D+01
 Coeff:     -0.192D-03 0.696D-03-0.602D-03-0.187D-01-0.161D+00 0.118D+01
 Gap=     0.199 Goal=   None    Shift=    0.000
 RMSDP=2.80D-06 MaxDP=3.78D-05 DE=-2.17D-07 OVMax= 2.29D-04

 Cycle   7  Pass 1  IDiag  1:
 E= -8.07122234454357     Delta-E=       -0.000000026331 Rises=F Damp=F
 DIIS: error= 3.01D-06 at cycle   7 NSaved=   7.
 NSaved= 7 IEnMin= 7 EnMin= -8.07122234454357     IErMin= 7 ErrMin= 3.01D-06
 ErrMax= 3.01D-06  0.00D+00 EMaxC= 1.00D-01 BMatC= 1.78D-10 BMatP= 3.54D-09
 IDIUse=1 WtCom= 1.00D+00 WtEn= 0.00D+00
 Coeff-Com: -0.553D-04 0.137D-03-0.639D-03 0.650D-02-0.136D-01-0.279D+00
 Coeff-Com:  0.129D+01
 Coeff:     -0.553D-04 0.137D-03-0.639D-03 0.650D-02-0.136D-01-0.279D+00
 Coeff:      0.129D+01
 Gap=     0.199 Goal=   None    Shift=    0.000
 RMSDP=8.37D-07 MaxDP=1.30D-05 DE=-2.63D-08 OVMax= 6.66D-05

 Cycle   8  Pass 1  IDiag  1:
 E= -8.07122234604061     Delta-E=       -0.000000001497 Rises=F Damp=F
 DIIS: error= 2.59D-07 at cycle   8 NSaved=   8.
 NSaved= 8 IEnMin= 8 EnMin= -8.07122234604061     IErMin= 8 ErrMin= 2.59D-07
 ErrMax= 2.59D-07  0.00D+00 EMaxC= 1.00D-01 BMatC= 1.52D-12 BMatP= 1.78D-10
 IDIUse=1 WtCom= 1.00D+00 WtEn= 0.00D+00
 Coeff-Com:  0.156D-05 0.484D-05 0.419D-04-0.116D-03 0.561D-02-0.170D-01
 Coeff-Com: -0.518D-01 0.106D+01
 Coeff:      0.156D-05 0.484D-05 0.419D-04-0.116D-03 0.561D-02-0.170D-01
 Coeff:     -0.518D-01 0.106D+01
 Gap=     0.199 Goal=   None    Shift=    0.000
 RMSDP=3.80D-08 MaxDP=5.39D-07 DE=-1.50D-09 OVMax= 3.33D-06

 Cycle   9  Pass 1  IDiag  1:
 E= -8.07122234604540     Delta-E=       -0.000000000005 Rises=F Damp=F
 DIIS: error= 2.37D-08 at cycle   9 NSaved=   9.
 NSaved= 9 IEnMin= 9 EnMin= -8.07122234604540     IErMin= 9 ErrMin= 2.37D-08
 ErrMax= 2.37D-08  0.00D+00 EMaxC= 1.00D-01 BMatC= 1.09D-14 BMatP= 1.52D-12
 IDIUse=1 WtCom= 1.00D+00 WtEn= 0.00D+00
 Coeff-Com:  0.785D-06-0.158D-05 0.105D-04-0.919D-04-0.261D-03 0.508D-02
 Coeff-Com: -0.104D-01-0.866D-01 0.109D+01
 Coeff:      0.785D-06-0.158D-05 0.105D-04-0.919D-04-0.261D-03 0.508D-02
 Coeff:     -0.104D-01-0.866D-01 0.109D+01
 Gap=     0.199 Goal=   None    Shift=    0.000
 RMSDP=1.28D-08 MaxDP=2.45D-07 DE=-4.79D-12 OVMax= 2.62D-07

 Cycle  10  Pass 1  IDiag  1:
 E= -8.07122234604544     Delta-E=       -0.000000000000 Rises=F Damp=F
 DIIS: error= 3.12D-09 at cycle  10 NSaved=  10.
 NSaved=10 IEnMin=10 EnMin= -8.07122234604544     IErMin=10 ErrMin= 3.12D-09
 ErrMax= 3.12D-09  0.00D+00 EMaxC= 1.00D-01 BMatC= 2.48D-16 BMatP= 1.09D-14
 IDIUse=1 WtCom= 1.00D+00 WtEn= 0.00D+00
 Coeff-Com:  0.951D-07-0.269D-06-0.905D-06 0.194D-04-0.786D-04-0.392D-03
 Coeff-Com:  0.243D-02-0.890D-02-0.113D+00 0.112D+01
 Coeff:      0.951D-07-0.269D-06-0.905D-06 0.194D-04-0.786D-04-0.392D-03
 Coeff:      0.243D-02-0.890D-02-0.113D+00 0.112D+01
 Gap=     0.199 Goal=   None    Shift=    0.000
 RMSDP=1.94D-09 MaxDP=3.23D-08 DE=-3.38D-14 OVMax= 2.76D-08

 SCF Done:  E(RM062X) =  -8.07122234605     A.U. after   10 cycles
            NFock= 10  Conv=0.19D-08     -V/T= 2.0080
 KE= 8.007331120889D+00 PE=-2.046820552760D+01 EE= 3.394935617962D+00
 Leave Link  502 at Sat Apr 17 04:55:15 2021, MaxMem=   104857600 cpu:             605.1 elap:              13.0
 (Enter /s/ls4/users/knvvv/bin/g16sse/l601.exe)
 Copying SCF densities to generalized density rwf, IOpCl= 0 IROHF=0.

 **********************************************************************

            Population analysis using the SCF density.

 **********************************************************************

 Orbital symmetries:
       Occupied  (SG) (SG)
       Virtual   (SG) (PI) (PI) (SG) (SG) (PI) (PI) (SG) (PI) (PI)
                 (DLTA) (DLTA) (SG) (SG) (SG) (PI) (PI) (SG) (PI)
                 (PI) (DLTA) (DLTA) (PHI) (PHI) (SG) (PI) (PI)
                 (DLTA) (DLTA) (SG) (PI) (PI) (SG) (SG) (SG) (DLTA)
                 (DLTA) (PI) (PI) (SG) (PI) (PI) (SG) (SG) (PHI)
                 (PHI) (PI) (PI) (DLTA) (DLTA) (SG) (PI) (PI) (SG)
                 (PI) (PI) (SG) (DLTA) (DLTA) (PI) (PI) (SG) (SG)
 The electronic state is 1-SG.
 Alpha  occ. eigenvalues --   -2.16310  -0.23860
 Alpha virt. eigenvalues --   -0.03962   0.00348   0.00348   0.03661   0.04106
 Alpha virt. eigenvalues --    0.07929   0.07929   0.12899   0.17260   0.17260
 Alpha virt. eigenvalues --    0.17964   0.17964   0.24420   0.25540   0.28891
 Alpha virt. eigenvalues --    0.36439   0.36439   0.41551   0.46553   0.46553
 Alpha virt. eigenvalues --    0.49460   0.49460   0.50361   0.50361   0.61299
 Alpha virt. eigenvalues --    0.65548   0.65548   0.71948   0.71949   0.83526
 Alpha virt. eigenvalues --    0.93850   0.93850   1.15742   1.27820   1.42109
 Alpha virt. eigenvalues --    2.02244   2.02245   2.12614   2.12614   2.37885
 Alpha virt. eigenvalues --    2.53542   2.53542   2.88885   4.98497   5.54250
 Alpha virt. eigenvalues --    5.54250   5.54367   5.54367   5.54880   5.54883
 Alpha virt. eigenvalues --    5.62934   5.67375   5.67375   6.46579   7.27178
 Alpha virt. eigenvalues --    7.27178   7.29132   7.49339   7.49339   7.70142
 Alpha virt. eigenvalues --    7.70142   8.01977   9.31570
          Condensed to atoms (all electrons):
               1          2
     1  Li   2.363354   0.419028
     2  H    0.419028   0.798591
 Mulliken charges:
               1
     1  Li   0.217619
     2  H   -0.217619
 Sum of Mulliken charges =   0.00000
 Mulliken charges with hydrogens summed into heavy atoms:
               1
     1  Li   0.000000
 Electronic spatial extent (au):  <R**2>=             20.2047
 Charge=              0.0000 electrons
 Dipole moment (field-independent basis, Debye):
    X=              0.0000    Y=              0.0000    Z=              5.7448  Tot=              5.7448
 Quadrupole moment (field-independent basis, Debye-Ang):
   XX=             -5.4364   YY=             -5.4364   ZZ=             -7.1276
   XY=             -0.0000   XZ=              0.0000   YZ=              0.0000
 Traceless Quadrupole moment (field-independent basis, Debye-Ang):
   XX=              0.5637   YY=              0.5637   ZZ=             -1.1275
   XY=             -0.0000   XZ=              0.0000   YZ=              0.0000
 Octapole moment (field-independent basis, Debye-Ang**2):
  XXX=              0.0000  YYY=             -0.0000  ZZZ=             14.4403  XYY=              0.0000
  XXY=             -0.0000  XXZ=              4.1127  XZZ=              0.0000  YZZ=             -0.0000
  YYZ=              4.1127  XYZ=             -0.0000
 Hexadecapole moment (field-independent basis, Debye-Ang**3):
 XXXX=            -13.0958 YYYY=            -13.0958 ZZZZ=            -35.9097 XXXY=             -0.0000
 XXXZ=              0.0000 YYYX=             -0.0000 YYYZ=              0.0000 ZZZX=              0.0000
 ZZZY=              0.0000 XXYY=             -4.3653 XXZZ=             -7.9566 YYZZ=             -7.9566
 XXYZ=              0.0000 YYXZ=              0.0000 ZZXY=             -0.0000
 N-N= 9.947164427017D-01 E-N=-2.046820551891D+01  KE= 8.007331120889D+00
 No NMR shielding tensors so no spin-rotation constants.
 Leave Link  601 at Sat Apr 17 04:55:16 2021, MaxMem=   104857600 cpu:              43.7 elap:               1.0
 (Enter /s/ls4/users/knvvv/bin/g16sse/l801.exe)
 DoSCS=F DFT=T ScalE2(SS,OS)=  1.000000  1.000000
 Range of M.O.s used for correlation:     1    65
 NBasis=    65 NAE=     2 NBE=     2 NFC=     0 NFV=     0
 NROrb=     65 NOA=     2 NOB=     2 NVA=    63 NVB=    63
 Leave Link  801 at Sat Apr 17 04:55:16 2021, MaxMem=   104857600 cpu:               3.6 elap:               0.1
 (Enter /s/ls4/users/knvvv/bin/g16sse/l914.exe)
 RHF ground state
 Doing stability rather than CIS.
 Keep R1 and R2 ints in memory in symmetry-blocked form, NReq=75148653.
 FoFCou: FMM=F IPFlag=           0 FMFlag=           0 FMFlg1=           0
         NFxFlg=           0 DoJE=F BraDBF=F KetDBF=F FulRan=T
         wScrn=  0.000000 ICntrl=       600 IOpCl=  0 I1Cent=           0 NGrid=           0
         NMat0=    1 NMatS0=   2145 NMatT0=    0 NMatD0=    1 NMtDS0=    0 NMtDT0=    0
 Petite list used in FoFCou.
 MDV=   104857600 DFT=T DoStab=T Mixed=T DoRPA=F DoScal=F NonHer=F
 Making orbital integer symmetry assigments:
 Orbital symmetries:
       Occupied  (SG) (SG)
       Virtual   (SG) (PI) (PI) (SG) (SG) (PI) (PI) (SG) (PI) (PI)
                 (DLTA) (DLTA) (SG) (SG) (SG) (PI) (PI) (SG) (PI)
                 (PI) (DLTA) (DLTA) (PHI) (PHI) (SG) (PI) (PI)
                 (DLTA) (DLTA) (SG) (PI) (PI) (SG) (SG) (SG) (DLTA)
                 (DLTA) (PI) (PI) (SG) (PI) (PI) (SG) (SG) (PHI)
                 (PHI) (PI) (PI) (DLTA) (DLTA) (SG) (PI) (PI) (SG)
                 (PI) (PI) (SG) (DLTA) (DLTA) (PI) (PI) (SG) (SG)
    24 initial guesses have been made.
 Convergence on wavefunction:    0.001000000000000
 Davidson Disk Diagonalization:  ConvIn= 1.00D-03 SkipCon=T Conv= 1.00D-03.
 Max sub-space:   504 roots to seek:    24 dimension of matrix:          252
 Iteration     1 Dimension    24 NMult     0 NNew     24
 CISAX will form    24 AO SS matrices at one time.
 NMat=    24 NSing=    12 JSym2X= 2.
 New state      1 was old state      2
 Excitation Energies [eV] at current iteration:
 Root      1 :     3.693177624619532
 Root      2 :     3.918719906983307
 Root      3 :     4.512055337314900
 Root      4 :     4.512055337320761
 Root      5 :     4.683319742263126
 Root      6 :     4.683319742266340
 Root      7 :     5.661719984548116
 Root      8 :     6.011445056489811
 Root      9 :     6.027073652927830
 Root     10 :     6.360831457270676
 Root     11 :     6.360831457393929
 Root     12 :     6.590961411371203
 Root     13 :     6.688462654861166
 Root     14 :     6.688462655021301
 Root     15 :     8.167714753699961
 Root     16 :     8.167814798751454
 Root     17 :     8.725279653185506
 Root     18 :     8.760570619120818
 Root     19 :     9.339506935678285
 Root     20 :     9.339506935685566
 Root     21 :     9.473977649937526
 Root     22 :     9.474067820459744
 Root     23 :     9.565894809669981
 Root     24 :     9.565894809699834
 Iteration     2 Dimension    48 NMult    24 NNew     24
 CISAX will form    24 AO SS matrices at one time.
 NMat=    24 NSing=    12 JSym2X= 2.
 Root      1 not converged, maximum delta is    0.110877304889310
 Excitation Energies [eV] at current iteration:
 Root      1 :     3.350440545665322   Change is   -0.342737078954210
 Root      2 :     3.661723017880411   Change is   -0.256996889102895
 Root      3 :     4.419644313489613   Change is   -0.092411023825287
 Root      4 :     4.419644313494096   Change is   -0.092411023826665
 Root      5 :     4.591905891839595   Change is   -0.091413850423531
 Root      6 :     4.591905891844809   Change is   -0.091413850421531
 Root      7 :     5.425629360570021   Change is   -0.236090623978095
 Root      8 :     5.884700502277426   Change is   -0.142373150650403
 Root      9 :     5.968956378804012   Change is   -0.042488677685800
 Root     10 :     6.253054885223035   Change is   -0.107776572047641
 Root     11 :     6.253054885347291   Change is   -0.107776572046638
 Root     12 :     6.442985052033460   Change is   -0.147976359337744
 Root     13 :     6.612694537560836   Change is   -0.075768117300330
 Root     14 :     6.612694537711116   Change is   -0.075768117310185
 Root     15 :     8.160997747094472   Change is   -0.006717006605489
 Root     16 :     8.161114099262653   Change is   -0.006700699488801
 Root     17 :     8.189464775626069   Change is   -0.535814877559438
 Root     18 :     8.256099031749617   Change is   -0.504471587371201
 Root     19 :     9.108188794189026   Change is   -0.457706015480954
 Root     20 :     9.108188794211419   Change is   -0.457706015488416
 Root     21 :     9.181135472642440   Change is   -0.158371463035845
 Root     22 :     9.181135472650290   Change is   -0.158371463035277
 Root     23 :     9.335824084260496   Change is   -0.138153565677028
 Root     24 :     9.335964615199821   Change is   -0.138103205259925
 Iteration     3 Dimension    54 NMult    48 NNew      6
 CISAX will form     6 AO SS matrices at one time.
 NMat=     6 NSing=     3 JSym2X= 2.
 Root      1 not converged, maximum delta is    0.003465213916171
 Excitation Energies [eV] at current iteration:
 Root      1 :     3.344756508567241   Change is   -0.005684037098081
 Root      2 :     3.659021830498263   Change is   -0.002701187382148
 Root      3 :     4.417627262698441   Change is   -0.002017050791171
 Root      4 :     4.417627262702580   Change is   -0.002017050791516
 Root      5 :     4.591524240305968   Change is   -0.000381651533627
 Root      6 :     4.591524240311194   Change is   -0.000381651533615
 Iteration     4 Dimension    60 NMult    54 NNew      6
 CISAX will form     6 AO SS matrices at one time.
 NMat=     6 NSing=     3 JSym2X= 2.
 Root      1 has converged.
 Excitation Energies [eV] at current iteration:
 Root      1 :     3.344711800221583   Change is   -0.000044708345657
 Root      2 :     3.658981839757256   Change is   -0.000039990741008
 Root      3 :     4.417604586179578   Change is   -0.000022676518864
 Root      4 :     4.417604586183771   Change is   -0.000022676518810
 Root      5 :     4.591520529244782   Change is   -0.000003711061186
 Root      6 :     4.591520529250026   Change is   -0.000003711061168
 Convergence achieved on expansion vectors.
 ***********************************************************************
 Stability analysis using <AA,BB:AA,BB> singles matrix:
 ***********************************************************************
 1PDM for each excited state written to RWF  633
 Ground to excited state transition densities written to RWF  633

 Eigenvectors of the stability matrix:
 
 Eigenvector   1:      Triplet-SG   Eigenvalue= 0.1229159  <S**2>=2.000
       2 ->  3         0.63709
       2 ->  6        -0.10529
       2 ->  7        -0.14395
       2 -> 10         0.20771
       2 -> 20         0.11408
 The wavefunction is stable under the perturbations considered.
 Leave Link  914 at Sat Apr 17 04:55:25 2021, MaxMem=   104857600 cpu:             402.6 elap:               8.6
 (Enter /s/ls4/users/knvvv/bin/g16sse/l508.exe)
 The wavefunction is already stable.
 Leave Link  508 at Sat Apr 17 04:55:25 2021, MaxMem=   104857600 cpu:               2.2 elap:               0.1
 (Enter /s/ls4/users/knvvv/bin/g16sse/l601.exe)
 Copying SCF densities to generalized density rwf, IOpCl= 0 IROHF=0.

 **********************************************************************

            Population analysis using the SCF density.

 **********************************************************************

 Orbital symmetries:
       Occupied  (SG) (SG)
       Virtual   (SG) (PI) (PI) (SG) (SG) (PI) (PI) (SG) (PI) (PI)
                 (DLTA) (DLTA) (SG) (SG) (SG) (PI) (PI) (SG) (PI)
                 (PI) (DLTA) (DLTA) (PHI) (PHI) (SG) (PI) (PI)
                 (DLTA) (DLTA) (SG) (PI) (PI) (SG) (SG) (SG) (DLTA)
                 (DLTA) (PI) (PI) (SG) (PI) (PI) (SG) (SG) (PHI)
                 (PHI) (PI) (PI) (DLTA) (DLTA) (SG) (PI) (PI) (SG)
                 (PI) (PI) (SG) (DLTA) (DLTA) (PI) (PI) (SG) (SG)
 The electronic state is 1-SG.
 Alpha  occ. eigenvalues --   -2.16310  -0.23860
 Alpha virt. eigenvalues --   -0.03962   0.00348   0.00348   0.03661   0.04106
 Alpha virt. eigenvalues --    0.07929   0.07929   0.12899   0.17260   0.17260
 Alpha virt. eigenvalues --    0.17964   0.17964   0.24420   0.25540   0.28891
 Alpha virt. eigenvalues --    0.36439   0.36439   0.41551   0.46553   0.46553
 Alpha virt. eigenvalues --    0.49460   0.49460   0.50361   0.50361   0.61299
 Alpha virt. eigenvalues --    0.65548   0.65548   0.71948   0.71949   0.83526
 Alpha virt. eigenvalues --    0.93850   0.93850   1.15742   1.27820   1.42109
 Alpha virt. eigenvalues --    2.02244   2.02245   2.12614   2.12614   2.37885
 Alpha virt. eigenvalues --    2.53542   2.53542   2.88885   4.98497   5.54250
 Alpha virt. eigenvalues --    5.54250   5.54367   5.54367   5.54880   5.54883
 Alpha virt. eigenvalues --    5.62934   5.67375   5.67375   6.46579   7.27178
 Alpha virt. eigenvalues --    7.27178   7.29132   7.49339   7.49339   7.70142
 Alpha virt. eigenvalues --    7.70142   8.01977   9.31570
          Condensed to atoms (all electrons):
               1          2
     1  Li   2.363354   0.419028
     2  H    0.419028   0.798591
 Mulliken charges:
               1
     1  Li   0.217619
     2  H   -0.217619
 Sum of Mulliken charges =   0.00000
 Mulliken charges with hydrogens summed into heavy atoms:
               1
     1  Li   0.000000
 Electronic spatial extent (au):  <R**2>=             20.2047
 Charge=              0.0000 electrons
 Dipole moment (field-independent basis, Debye):
    X=              0.0000    Y=              0.0000    Z=              5.7448  Tot=              5.7448
 Quadrupole moment (field-independent basis, Debye-Ang):
   XX=             -5.4364   YY=             -5.4364   ZZ=             -7.1276
   XY=             -0.0000   XZ=              0.0000   YZ=              0.0000
 Traceless Quadrupole moment (field-independent basis, Debye-Ang):
   XX=              0.5637   YY=              0.5637   ZZ=             -1.1275
   XY=             -0.0000   XZ=              0.0000   YZ=              0.0000
 Octapole moment (field-independent basis, Debye-Ang**2):
  XXX=              0.0000  YYY=             -0.0000  ZZZ=             14.4403  XYY=              0.0000
  XXY=             -0.0000  XXZ=              4.1127  XZZ=              0.0000  YZZ=             -0.0000
  YYZ=              4.1127  XYZ=             -0.0000
 Hexadecapole moment (field-independent basis, Debye-Ang**3):
 XXXX=            -13.0958 YYYY=            -13.0958 ZZZZ=            -35.9097 XXXY=             -0.0000
 XXXZ=              0.0000 YYYX=             -0.0000 YYYZ=              0.0000 ZZZX=              0.0000
 ZZZY=              0.0000 XXYY=             -4.3653 XXZZ=             -7.9566 YYZZ=             -7.9566
 XXYZ=              0.0000 YYXZ=              0.0000 ZZXY=             -0.0000
 N-N= 9.947164427017D-01 E-N=-2.046820551891D+01  KE= 8.007331120889D+00
 No NMR shielding tensors so no spin-rotation constants.
 Leave Link  601 at Sat Apr 17 04:55:26 2021, MaxMem=   104857600 cpu:              39.4 elap:               0.9
 (Enter /s/ls4/users/knvvv/bin/g16sse/l9999.exe)

 Test job not archived.
 1\1\GINC-N178\Stability\RM062X\def2QZVP\H1Li1\KNVVV\17-Apr-2021\0\\#P 
 M062X/Def2QZVP Integral=UltraFineGrid SCF=NoSymm Stable=(RExt, Opt) IO
 p(1/33=1)\\Database calculations.\\0,1\Li,0,0.,0.,-0.797982\H,0,0.,0.,
 0.797982\\Version=ES64L-G16RevA.03\State=1-SG\HF=-8.0712223\RMSD=1.945
 e-09\Dipole=0.,0.,-2.2601601\Quadrupole=0.4191261,0.4191261,-0.8382521
 ,0.,0.,0.\PG=C*V [C*(H1Li1)]\\@


 TOWERING GENIUS DISDAINS A BEATEN PATH.  IT SEEKS 
 REGIONS HITHERTO UNEXPLORED.

                                -- ABRAHAM LINCOLN
 Job cpu time:       0 days  0 hours 22 minutes 17.1 seconds.
 Elapsed time:       0 days  0 hours  0 minutes 28.9 seconds.
 File lengths (MBytes):  RWF=      8 Int=      0 D2E=      0 Chk=      2 Scr=      1
 Normal termination of Gaussian 16 at Sat Apr 17 04:55:26 2021.
