 Entering Gaussian System, Link 0=/s/ls4/users/knvvv/bin/g16sse/g16
 Input=data/database/M062X--def2-QZVP--Z_015_de2-QZVP_He.gjf
 Output=data/database/M062X--def2-QZVP--Z_015_de2-QZVP_He.log
 Initial command:
 /s/ls4/users/knvvv/bin/g16sse/l1.exe "/s/ls4/users/knvvv/bin/scratch/Gau-32100.inp" -scrdir="/s/ls4/users/knvvv/bin/scratch/"
 Entering Link 1 = /s/ls4/users/knvvv/bin/g16sse/l1.exe PID=     32101.
  
 Copyright (c) 1988,1990,1992,1993,1995,1998,2003,2009,2016,
            Gaussian, Inc.  All Rights Reserved.
  
 This is part of the Gaussian(R) 16 program.  It is based on
 the Gaussian(R) 09 system (copyright 2009, Gaussian, Inc.),
 the Gaussian(R) 03 system (copyright 2003, Gaussian, Inc.),
 the Gaussian(R) 98 system (copyright 1998, Gaussian, Inc.),
 the Gaussian(R) 94 system (copyright 1995, Gaussian, Inc.),
 the Gaussian 92(TM) system (copyright 1992, Gaussian, Inc.),
 the Gaussian 90(TM) system (copyright 1990, Gaussian, Inc.),
 the Gaussian 88(TM) system (copyright 1988, Gaussian, Inc.),
 the Gaussian 86(TM) system (copyright 1986, Carnegie Mellon
 University), and the Gaussian 82(TM) system (copyright 1983,
 Carnegie Mellon University). Gaussian is a federally registered
 trademark of Gaussian, Inc.
  
 This software contains proprietary and confidential information,
 including trade secrets, belonging to Gaussian, Inc.
  
 This software is provided under written license and may be
 used, copied, transmitted, or stored only in accord with that
 written license.
  
 The following legend is applicable only to US Government
 contracts under FAR:
  
                    RESTRICTED RIGHTS LEGEND
  
 Use, reproduction and disclosure by the US Government is
 subject to restrictions as set forth in subparagraphs (a)
 and (c) of the Commercial Computer Software - Restricted
 Rights clause in FAR 52.227-19.
  
 Gaussian, Inc.
 340 Quinnipiac St., Bldg. 40, Wallingford CT 06492
  
  
 ---------------------------------------------------------------
 Warning -- This program may not be used in any manner that
 competes with the business of Gaussian, Inc. or will provide
 assistance to any competitor of Gaussian, Inc.  The licensee
 of this program is prohibited from giving any competitor of
 Gaussian, Inc. access to this program.  By using this program,
 the user acknowledges that Gaussian, Inc. is engaged in the
 business of creating and licensing software in the field of
 computational chemistry and represents and warrants to the
 licensee that it is not a competitor of Gaussian, Inc. and that
 it will not use this program in any manner prohibited above.
 ---------------------------------------------------------------
  

 Cite this work as:
 Gaussian 16, Revision A.03,
 M. J. Frisch, G. W. Trucks, H. B. Schlegel, G. E. Scuseria, 
 M. A. Robb, J. R. Cheeseman, G. Scalmani, V. Barone, 
 G. A. Petersson, H. Nakatsuji, X. Li, M. Caricato, A. V. Marenich, 
 J. Bloino, B. G. Janesko, R. Gomperts, B. Mennucci, H. P. Hratchian, 
 J. V. Ortiz, A. F. Izmaylov, J. L. Sonnenberg, D. Williams-Young, 
 F. Ding, F. Lipparini, F. Egidi, J. Goings, B. Peng, A. Petrone, 
 T. Henderson, D. Ranasinghe, V. G. Zakrzewski, J. Gao, N. Rega, 
 G. Zheng, W. Liang, M. Hada, M. Ehara, K. Toyota, R. Fukuda, 
 J. Hasegawa, M. Ishida, T. Nakajima, Y. Honda, O. Kitao, H. Nakai, 
 T. Vreven, K. Throssell, J. A. Montgomery, Jr., J. E. Peralta, 
 F. Ogliaro, M. J. Bearpark, J. J. Heyd, E. N. Brothers, K. N. Kudin, 
 V. N. Staroverov, T. A. Keith, R. Kobayashi, J. Normand, 
 K. Raghavachari, A. P. Rendell, J. C. Burant, S. S. Iyengar, 
 J. Tomasi, M. Cossi, J. M. Millam, M. Klene, C. Adamo, R. Cammi, 
 J. W. Ochterski, R. L. Martin, K. Morokuma, O. Farkas, 
 J. B. Foresman, and D. J. Fox, Gaussian, Inc., Wallingford CT, 2016.
 
 ******************************************
 Gaussian 16:  ES64L-G16RevA.03 25-Dec-2016
                18-Apr-2021 
 ******************************************
 %RWF=temp12_52989,70GB
 %nprocshared=48
 Will use up to   48 processors via shared memory.
 Default route: MaxDisk=80GB
 ----------------------------------------------------------------------
 #P M062X/Def2QZVP Integral=UltraFineGrid SCF=NoSymm Stable=(RExt, Opt)
  IOp(1/33=1)
 ----------------------------------------------------------------------
 1/33=1,38=1,172=1/1;
 2/12=2,17=6,18=5,40=1/2;
 3/5=45,7=101,11=2,25=1,30=1,74=-55,75=-5/1,2,3;
 4/9=2/1;
 5/5=2,38=5/2;
 6/7=2,8=2,9=2,10=2,28=1/1;
 8/6=1,10=90,11=11/1;
 9/8=-3,42=1,46=1/14;
 5/5=2,8=3,17=40,38=5/8(-2);
 6/7=2,8=2,9=2,10=2,28=1/1;
 99/5=1,9=1/99;
 Leave Link    1 at Sun Apr 18 07:26:36 2021, MaxMem=           0 cpu:              10.9 elap:               0.2
 (Enter /s/ls4/users/knvvv/bin/g16sse/l101.exe)
 ONIOM data not found on unit 2.
 ----------------------
 Database calculations.
 ----------------------
 TstMul:  ICh=     0
 TstMul:  Mul=     1
 TstMul:  ICh=     0
 TstMul:  Mul=     1
 Symbolic Z-matrix:
 Charge =  0 Multiplicity = 1
 He                    0.        0.        0. 
 
 RdStrC is calling ZToCFu for IStruc=1 NZ=     1.
 PrtBox:  NBox=     1 Levels=  0 BoxLen=    8.00 SMaxX=        0.00
          Shift=            0.000000            0.000000            0.000000
 Box      1 Number                   0 centers from      1 to      1:
 After GenITR:
 ITRead=  0
 MicOpt= -1
 ITRead=  0
 MicOpt= -1
 NAtoms=      1 NQM=        1 NQMF=       0 NMMI=      0 NMMIF=      0
                NMic=       0 NMicF=      0.
                    Isotopes and Nuclear Properties:
 (Nuclear quadrupole moments (NQMom) in fm**2, nuclear magnetic moments (NMagM)
  in nuclear magnetons)

  Atom         1
 IAtWgt=           4
 AtmWgt=   4.0026033
 NucSpn=           0
 AtZEff=  -0.0000000
 NQMom=    0.0000000
 NMagM=    0.0000000
 AtZNuc=   2.0000000
 No MM parameters found.
 Leave Link  101 at Sun Apr 18 07:26:36 2021, MaxMem=   104857600 cpu:               8.0 elap:               0.2
 (Enter /s/ls4/users/knvvv/bin/g16sse/l202.exe)
                          Input orientation:                          
 ---------------------------------------------------------------------
 Center     Atomic      Atomic             Coordinates (Angstroms)
 Number     Number       Type             X           Y           Z
 ---------------------------------------------------------------------
      1          2           0        0.000000    0.000000    0.000000
 ---------------------------------------------------------------------
 Stoichiometry    He
 Framework group  OH[O(He)]
 Deg. of freedom     0
 Full point group                 OH      NOp  48
 Largest Abelian subgroup         D2H     NOp   8
 Largest concise Abelian subgroup C1      NOp   1
                         Standard orientation:                         
 ---------------------------------------------------------------------
 Center     Atomic      Atomic             Coordinates (Angstroms)
 Number     Number       Type             X           Y           Z
 ---------------------------------------------------------------------
      1          2           0        0.000000    0.000000    0.000000
 ---------------------------------------------------------------------
 Leave Link  202 at Sun Apr 18 07:26:37 2021, MaxMem=   104857600 cpu:              38.5 elap:               0.8
 (Enter /s/ls4/users/knvvv/bin/g16sse/l301.exe)
 Standard basis: def2QZVP (5D, 7F)
 Ernie: Thresh=  0.10000D-02 Tol=  0.10000D-05 Strict=F.
 There are    10 symmetry adapted cartesian basis functions of AG  symmetry.
 There are     2 symmetry adapted cartesian basis functions of B1G symmetry.
 There are     2 symmetry adapted cartesian basis functions of B2G symmetry.
 There are     2 symmetry adapted cartesian basis functions of B3G symmetry.
 There are     1 symmetry adapted cartesian basis functions of AU  symmetry.
 There are     6 symmetry adapted cartesian basis functions of B1U symmetry.
 There are     6 symmetry adapted cartesian basis functions of B2U symmetry.
 There are     6 symmetry adapted cartesian basis functions of B3U symmetry.
 There are     8 symmetry adapted basis functions of AG  symmetry.
 There are     2 symmetry adapted basis functions of B1G symmetry.
 There are     2 symmetry adapted basis functions of B2G symmetry.
 There are     2 symmetry adapted basis functions of B3G symmetry.
 There are     1 symmetry adapted basis functions of AU  symmetry.
 There are     5 symmetry adapted basis functions of B1U symmetry.
 There are     5 symmetry adapted basis functions of B2U symmetry.
 There are     5 symmetry adapted basis functions of B3U symmetry.
    30 basis functions,    39 primitive gaussians,    35 cartesian basis functions
     1 alpha electrons        1 beta electrons
       nuclear repulsion energy         0.0000000000 Hartrees.
 IExCor= 4336 DFT=T Ex+Corr=M062X ExCW=0 ScaHFX=  0.540000
 ScaDFX=  1.000000  1.000000  1.000000  1.000000 ScalE2=  1.000000  1.000000
 IRadAn=      5 IRanWt=     -1 IRanGd=            0 ICorTp=0 IEmpDi=  4
 NAtoms=    1 NActive=    1 NUniq=    1 SFac= 1.00D+00 NAtFMM=   60 NAOKFM=F Big=F
 Integral buffers will be    131072 words long.
 Raffenetti 2 integral format.
 Two-electron integral symmetry is turned on.
 Leave Link  301 at Sun Apr 18 07:26:37 2021, MaxMem=   104857600 cpu:               6.2 elap:               0.2
 (Enter /s/ls4/users/knvvv/bin/g16sse/l302.exe)
 NPDir=0 NMtPBC=     1 NCelOv=     1 NCel=       1 NClECP=     1 NCelD=      1
         NCelK=      1 NCelE2=     1 NClLst=     1 CellRange=     0.0.
 One-electron integrals computed using PRISM.
 One-electron integral symmetry used in STVInt
 PrsmSu:  requested number of processors reduced to:  13 ShMem   1 Linda.
  48 Symmetry operations used in ECPInt.
 ECPInt:  NShTT=      55 NPrTT=     115 LenC2=      56 LenP2D=     115.
 LDataN:  DoStor=T MaxTD1= 6 Len=  172
 NBasis=    30 RedAO= T EigKep=  3.48D-02  NBF=     8     2     2     2     1     5     5     5
 NBsUse=    30 1.00D-06 EigRej= -1.00D+00 NBFU=     8     2     2     2     1     5     5     5
 Precomputing XC quadrature grid using
 IXCGrd= 4 IRadAn=           5 IRanWt=          -1 IRanGd=           0 AccXCQ= 0.00D+00.
 Generated NRdTot=       0 NPtTot=           0 NUsed=           0 NTot=          32
 NSgBfM=    35    35    35    35    35 MxSgAt=     1 MxSgA2=     1.
 Leave Link  302 at Sun Apr 18 07:26:39 2021, MaxMem=   104857600 cpu:             107.1 elap:               2.3
 (Enter /s/ls4/users/knvvv/bin/g16sse/l303.exe)
 DipDrv:  MaxL=1.
 Leave Link  303 at Sun Apr 18 07:26:40 2021, MaxMem=   104857600 cpu:              11.2 elap:               0.3
 (Enter /s/ls4/users/knvvv/bin/g16sse/l401.exe)
 SCF N**3 symmetry information disabled.
 ExpMin= 1.64D-01 ExpMax= 1.14D+03 ExpMxC= 1.72D+02 IAcc=3 IRadAn=         5 AccDes= 0.00D+00
 Harris functional with IExCor= 1009 and IRadAn=       5 diagonalized for initial guess.
 HarFok:  IExCor= 1009 AccDes= 0.00D+00 IRadAn=         5 IDoV= 1 UseB2=F ITyADJ=14
 ICtDFT=  3500011 ScaDFX=  1.000000  1.000000  1.000000  1.000000
 FoFCou: FMM=F IPFlag=           0 FMFlag=      100000 FMFlg1=           0
         NFxFlg=           0 DoJE=T BraDBF=F KetDBF=T FulRan=T
         wScrn=  0.000000 ICntrl=       500 IOpCl=  0 I1Cent=   200000004 NGrid=           0
         NMat0=    1 NMatS0=      1 NMatT0=    0 NMatD0=    1 NMtDS0=    0 NMtDT0=    0
 Petite list used in FoFCou.
 Harris En= -2.89277838418441    
 JPrj=0 DoOrth=F DoCkMO=F.
 Initial guess orbital symmetries:
       Occupied  (A1G)
       Virtual   (A1G) (T1U) (T1U) (T1U) (A1G) (T2G) (T2G) (T2G)
                 (EG) (EG) (T1U) (T1U) (T1U) (A1G) (T2U) (T2U)
                 (T2U) (A2U) (T1U) (T1U) (T1U) (T2G) (T2G) (T2G)
                 (EG) (EG) (T1U) (T1U) (T1U)
 The electronic state of the initial guess is 1-A1G.
 Leave Link  401 at Sun Apr 18 07:26:42 2021, MaxMem=   104857600 cpu:              97.2 elap:               2.1
 (Enter /s/ls4/users/knvvv/bin/g16sse/l502.exe)
 Keep R1 ints in memory in symmetry-blocked form, NReq=41554587.
 FoFCou: FMM=F IPFlag=           0 FMFlag=           0 FMFlg1=           0
         NFxFlg=           0 DoJE=F BraDBF=F KetDBF=F FulRan=T
         wScrn=  0.000000 ICntrl=       600 IOpCl=  0 I1Cent=           0 NGrid=           0
         NMat0=    1 NMatS0=    465 NMatT0=    0 NMatD0=    1 NMtDS0=    0 NMtDT0=    0
 Petite list used in FoFCou.
 Closed shell SCF:
 Using DIIS extrapolation, IDIIS=  1040.
 NGot=   104857600 LenX=   104833467 LenY=   104831801
 Requested convergence on RMS density matrix=1.00D-08 within 128 cycles.
 Requested convergence on MAX density matrix=1.00D-06.
 Requested convergence on             energy=1.00D-06.
 No special actions if energy rises.
 Integral accuracy reduced to 1.0D-05 until final iterations.

 Cycle   1  Pass 0  IDiag  1:
 E= -2.90432895272403    
 DIIS: error= 5.15D-03 at cycle   1 NSaved=   1.
 NSaved= 1 IEnMin= 1 EnMin= -2.90432895272403     IErMin= 1 ErrMin= 5.15D-03
 ErrMax= 5.15D-03  0.00D+00 EMaxC= 1.00D-01 BMatC= 1.82D-04 BMatP= 1.82D-04
 IDIUse=3 WtCom= 9.48D-01 WtEn= 5.15D-02
 Coeff-Com:  0.100D+01
 Coeff-En:   0.100D+01
 Coeff:      0.100D+01
 Gap=     1.100 Goal=   None    Shift=    0.000
 GapD=    1.100 DampG=2.000 DampE=1.000 DampFc=2.0000 IDamp=-1.
 RMSDP=8.63D-04 MaxDP=1.66D-02              OVMax= 1.06D-02

 Cycle   2  Pass 0  IDiag  1:
 E= -2.90460841345797     Delta-E=       -0.000279460734 Rises=F Damp=F
 DIIS: error= 8.88D-04 at cycle   2 NSaved=   2.
 NSaved= 2 IEnMin= 2 EnMin= -2.90460841345797     IErMin= 2 ErrMin= 8.88D-04
 ErrMax= 8.88D-04  0.00D+00 EMaxC= 1.00D-01 BMatC= 7.79D-06 BMatP= 1.82D-04
 IDIUse=3 WtCom= 9.91D-01 WtEn= 8.88D-03
 Coeff-Com: -0.460D-01 0.105D+01
 Coeff-En:   0.000D+00 0.100D+01
 Coeff:     -0.456D-01 0.105D+01
 Gap=     1.093 Goal=   None    Shift=    0.000
 RMSDP=1.24D-04 MaxDP=2.81D-03 DE=-2.79D-04 OVMax= 1.09D-03

 Cycle   3  Pass 0  IDiag  1:
 E= -2.90461431067780     Delta-E=       -0.000005897220 Rises=F Damp=F
 DIIS: error= 1.46D-04 at cycle   3 NSaved=   3.
 NSaved= 3 IEnMin= 3 EnMin= -2.90461431067780     IErMin= 3 ErrMin= 1.46D-04
 ErrMax= 1.46D-04  0.00D+00 EMaxC= 1.00D-01 BMatC= 1.68D-07 BMatP= 7.79D-06
 IDIUse=3 WtCom= 9.99D-01 WtEn= 1.46D-03
 Coeff-Com: -0.279D-01 0.810D-01 0.947D+00
 Coeff-En:   0.000D+00 0.000D+00 0.100D+01
 Coeff:     -0.279D-01 0.809D-01 0.947D+00
 Gap=     1.093 Goal=   None    Shift=    0.000
 RMSDP=1.65D-05 MaxDP=3.22D-04 DE=-5.90D-06 OVMax= 1.97D-04

 Cycle   4  Pass 0  IDiag  1:
 E= -2.90461441474394     Delta-E=       -0.000000104066 Rises=F Damp=F
 DIIS: error= 6.91D-06 at cycle   4 NSaved=   4.
 NSaved= 4 IEnMin= 4 EnMin= -2.90461441474394     IErMin= 4 ErrMin= 6.91D-06
 ErrMax= 6.91D-06  0.00D+00 EMaxC= 1.00D-01 BMatC= 3.17D-10 BMatP= 1.68D-07
 IDIUse=1 WtCom= 1.00D+00 WtEn= 0.00D+00
 Coeff-Com: -0.131D-03 0.572D-02-0.150D-01 0.101D+01
 Coeff:     -0.131D-03 0.572D-02-0.150D-01 0.101D+01
 Gap=     1.093 Goal=   None    Shift=    0.000
 RMSDP=4.49D-07 MaxDP=1.05D-05 DE=-1.04D-07 OVMax= 5.30D-06

 Initial convergence to 1.0D-05 achieved.  Increase integral accuracy.
 Cycle   5  Pass 1  IDiag  1:
 E= -2.90461441490439     Delta-E=       -0.000000000160 Rises=F Damp=F
 DIIS: error= 7.82D-09 at cycle   1 NSaved=   1.
 NSaved= 1 IEnMin= 1 EnMin= -2.90461441490439     IErMin= 1 ErrMin= 7.82D-09
 ErrMax= 7.82D-09  0.00D+00 EMaxC= 1.00D-01 BMatC= 3.27D-16 BMatP= 3.27D-16
 IDIUse=1 WtCom= 1.00D+00 WtEn= 0.00D+00
 Coeff-Com:  0.100D+01
 Coeff:      0.100D+01
 Gap=     1.093 Goal=   None    Shift=    0.000
 RMSDP=4.49D-07 MaxDP=1.05D-05 DE=-1.60D-10 OVMax= 4.33D-09

 Cycle   6  Pass 1  IDiag  1:
 E= -2.90461441490439     Delta-E=       -0.000000000000 Rises=F Damp=F
 DIIS: error= 4.06D-10 at cycle   2 NSaved=   2.
 NSaved= 2 IEnMin= 2 EnMin= -2.90461441490439     IErMin= 2 ErrMin= 4.06D-10
 ErrMax= 4.06D-10  0.00D+00 EMaxC= 1.00D-01 BMatC= 9.81D-19 BMatP= 3.27D-16
 IDIUse=1 WtCom= 1.00D+00 WtEn= 0.00D+00
 Coeff-Com: -0.388D-01 0.104D+01
 Coeff:     -0.388D-01 0.104D+01
 Gap=     1.093 Goal=   None    Shift=    0.000
 RMSDP=4.27D-11 MaxDP=8.32D-10 DE=-4.00D-15 OVMax= 5.05D-10

 SCF Done:  E(RM062X) =  -2.90461441490     A.U. after    6 cycles
            NFock=  6  Conv=0.43D-10     -V/T= 2.0103
 KE= 2.874971742614D+00 PE=-6.755799648596D+00 EE= 9.762134910776D-01
 Leave Link  502 at Sun Apr 18 07:26:52 2021, MaxMem=   104857600 cpu:             503.8 elap:              10.7
 (Enter /s/ls4/users/knvvv/bin/g16sse/l601.exe)
 Copying SCF densities to generalized density rwf, IOpCl= 0 IROHF=0.

 **********************************************************************

            Population analysis using the SCF density.

 **********************************************************************

 Orbital symmetries:
       Occupied  (A1G)
       Virtual   (A1G) (T1U) (T1U) (T1U) (A1G) (T2G) (T2G) (T2G)
                 (EG) (EG) (T1U) (T1U) (T1U) (A1G) (A2U) (T2U)
                 (T2U) (T2U) (T1U) (T1U) (T1U) (T2G) (T2G) (T2G)
                 (EG) (EG) (T1U) (T1U) (T1U)
 The electronic state is 1-A1G.
 Alpha  occ. eigenvalues --   -0.75694
 Alpha virt. eigenvalues --    0.33641   0.94518   0.94518   0.94518   2.02251
 Alpha virt. eigenvalues --    3.60890   3.60890   3.60890   3.60890   3.60890
 Alpha virt. eigenvalues --    4.41765   4.41765   4.41765   9.34801  10.97335
 Alpha virt. eigenvalues --   10.97335  10.97335  10.97335  10.97335  10.97335
 Alpha virt. eigenvalues --   10.97335  15.35230  15.35230  15.35230  15.35230
 Alpha virt. eigenvalues --   15.35230  16.68562  16.68562  16.68562
          Condensed to atoms (all electrons):
               1
     1  He   2.000000
 Mulliken charges:
               1
     1  He  -0.000000
 Sum of Mulliken charges =  -0.00000
 Mulliken charges with hydrogens summed into heavy atoms:
               1
     1  He  -0.000000
 Electronic spatial extent (au):  <R**2>=              2.4315
 Charge=             -0.0000 electrons
 Dipole moment (field-independent basis, Debye):
    X=              0.0000    Y=             -0.0000    Z=              0.0000  Tot=              0.0000
 Quadrupole moment (field-independent basis, Debye-Ang):
   XX=             -1.0901   YY=             -1.0901   ZZ=             -1.0901
   XY=              0.0000   XZ=              0.0000   YZ=             -0.0000
 Traceless Quadrupole moment (field-independent basis, Debye-Ang):
   XX=              0.0000   YY=              0.0000   ZZ=              0.0000
   XY=              0.0000   XZ=              0.0000   YZ=             -0.0000
 Octapole moment (field-independent basis, Debye-Ang**2):
  XXX=              0.0000  YYY=             -0.0000  ZZZ=              0.0000  XYY=              0.0000
  XXY=             -0.0000  XXZ=              0.0000  XZZ=              0.0000  YZZ=             -0.0000
  YYZ=              0.0000  XYZ=             -0.0000
 Hexadecapole moment (field-independent basis, Debye-Ang**3):
 XXXX=             -0.6246 YYYY=             -0.6246 ZZZZ=             -0.6246 XXXY=              0.0000
 XXXZ=              0.0000 YYYX=              0.0000 YYYZ=             -0.0000 ZZZX=              0.0000
 ZZZY=             -0.0000 XXYY=             -0.2082 XXZZ=             -0.2082 YYZZ=             -0.2082
 XXYZ=             -0.0000 YYXZ=              0.0000 ZZXY=              0.0000
 N-N= 0.000000000000D+00 E-N=-6.755799648171D+00  KE= 2.874971742614D+00
 No NMR shielding tensors so no spin-rotation constants.
 Leave Link  601 at Sun Apr 18 07:26:54 2021, MaxMem=   104857600 cpu:              59.4 elap:               1.3
 (Enter /s/ls4/users/knvvv/bin/g16sse/l801.exe)
 DoSCS=F DFT=T ScalE2(SS,OS)=  1.000000  1.000000
 Range of M.O.s used for correlation:     1    30
 NBasis=    30 NAE=     1 NBE=     1 NFC=     0 NFV=     0
 NROrb=     30 NOA=     1 NOB=     1 NVA=    29 NVB=    29
 Leave Link  801 at Sun Apr 18 07:26:54 2021, MaxMem=   104857600 cpu:               4.6 elap:               0.1
 (Enter /s/ls4/users/knvvv/bin/g16sse/l914.exe)
 RHF ground state
 Doing stability rather than CIS.
 Keep R1 and R2 ints in memory in symmetry-blocked form, NReq=63844927.
 FoFCou: FMM=F IPFlag=           0 FMFlag=           0 FMFlg1=           0
         NFxFlg=           0 DoJE=F BraDBF=F KetDBF=F FulRan=T
         wScrn=  0.000000 ICntrl=       600 IOpCl=  0 I1Cent=           0 NGrid=           0
         NMat0=    1 NMatS0=    465 NMatT0=    0 NMatD0=    1 NMtDS0=    0 NMtDT0=    0
 Petite list used in FoFCou.
 MDV=   104857600 DFT=T DoStab=T Mixed=T DoRPA=F DoScal=F NonHer=F
 Making orbital integer symmetry assigments:
 Orbital symmetries:
       Occupied  (A1G)
       Virtual   (A1G) (T1U) (T1U) (T1U) (A1G) (T2G) (T2G) (T2G)
                 (EG) (EG) (T1U) (T1U) (T1U) (A1G) (A2U) (T2U)
                 (T2U) (T2U) (T1U) (T1U) (T1U) (T2G) (T2G) (T2G)
                 (EG) (EG) (T1U) (T1U) (T1U)
    48 initial guesses have been made.
 Convergence on wavefunction:    0.001000000000000
 Davidson Disk Diagonalization:  ConvIn= 1.00D-03 SkipCon=T Conv= 1.00D-03.
 Max sub-space:   116 roots to seek:    48 dimension of matrix:           58
 Iteration     1 Dimension    48 NMult     0 NNew     48
 CISAX will form    48 AO SS matrices at one time.
 NMat=    48 NSing=    24 JSym2X= 2.
 New state      1 was old state      2
 Excitation Energies [eV] at current iteration:
 Root      1 :    22.742862010558980
 Root      2 :    28.785578397715650
 Root      3 :    34.207396459057240
 Root      4 :    34.207396459057440
 Root      5 :    34.207396459057480
 Root      6 :    41.984440967189930
 Root      7 :    41.984440967190120
 Root      8 :    41.984440967190230
 Root      9 :    60.802709475829130
 Root     10 :    74.762958924720520
 Root     11 :   107.519757243584800
 Root     12 :   107.519757243585000
 Root     13 :   107.519757243585200
 Root     14 :   107.522185018799600
 Root     15 :   107.522185018799700
 Root     16 :   109.479144544231900
 Root     17 :   109.479144544231900
 Root     18 :   109.479144544232300
 Root     19 :   109.494718088291800
 Root     20 :   109.494718088291800
 Root     21 :   129.700743143849700
 Root     22 :   129.700743143849700
 Root     23 :   129.700743143849900
 Root     24 :   139.188575586364400
 Root     25 :   139.188575586364500
 Root     26 :   139.188575586364600
 Root     27 :   273.644559344899200
 Root     28 :   285.363869946812600
 Root     29 :   315.994545789418000
 Root     30 :   315.994545789935400
 Root     31 :   315.994545789936500
 Root     32 :   315.994545789936500
 Root     33 :   315.994545790003800
 Root     34 :   315.994545790003800
 Root     35 :   315.994545790004100
 Root     36 :   317.968282517078300
 Root     37 :   317.968282517079200
 Root     38 :   317.968282517079600
 Root     39 :   317.968282517145800
 Root     40 :   317.968282518104600
 Root     41 :   317.968282518104800
 Root     42 :   317.968282518105100
 Root     43 :   424.948209504711700
 Root     44 :   424.948209504712500
 Root     45 :   424.948209504713400
 Root     46 :   425.791721913550800
 Root     47 :   425.791721913551600
 Root     48 :   425.791721913552200
 Iteration     2 Dimension    58 NMult    48 NNew     10
 CISAX will form    10 AO SS matrices at one time.
 NMat=    10 NSing=     5 JSym2X= 2.
 Root      1 has converged.
 Excitation Energies [eV] at current iteration:
 Root      1 :    22.742862010558960   Change is   -0.000000000000021
 Root      2 :    28.785578397715710   Change is    0.000000000000054
 Root      3 :    34.127342309814370   Change is   -0.080054149242865
 Root      4 :    34.127342309814420   Change is   -0.080054149243064
 Root      5 :    34.127342309814520   Change is   -0.080054149242925
 Root      6 :    41.974638012688410   Change is   -0.009802954501517
 Root      7 :    41.974638012688440   Change is   -0.009802954501674
 Root      8 :    41.974638012688540   Change is   -0.009802954501686
 Root      9 :    60.802709475829200   Change is    0.000000000000073
 Root     10 :    74.762958924720390   Change is   -0.000000000000121
 Root     11 :   107.519757243585000   Change is   -0.000000000000278
 Root     12 :   107.519757243585000   Change is    0.000000000000181
 Root     13 :   107.519757243585000   Change is    0.000000000000060
 Root     14 :   107.519757244004100   Change is   -0.002427774795485
 Root     15 :   107.519757244004300   Change is   -0.002427774795412
 Root     16 :   109.479144544231900   Change is    0.000000000000000
 Root     17 :   109.479144544232000   Change is    0.000000000000024
 Root     18 :   109.479144544232200   Change is   -0.000000000000121
 Root     19 :   109.479144545224600   Change is   -0.015573543067187
 Root     20 :   109.479144545224800   Change is   -0.015573543066994
 Root     21 :   129.393853082097300   Change is   -0.306890061752430
 Root     22 :   129.393853082097300   Change is   -0.306890061752358
 Root     23 :   129.393853082097400   Change is   -0.306890061752575
 Root     24 :   139.176724214678900   Change is   -0.011851371685764
 Root     25 :   139.176724214678900   Change is   -0.011851371685546
 Root     26 :   139.176724214679100   Change is   -0.011851371685329
 Root     27 :   273.644559344899200   Change is   -0.000000000000048
 Root     28 :   285.363869946812300   Change is   -0.000000000000242
 Root     29 :   315.994545789418000   Change is    0.000000000000000
 Root     30 :   315.994545789935700   Change is    0.000000000000290
 Root     31 :   315.994545789936300   Change is   -0.000000000000193
 Root     32 :   315.994545789936800   Change is    0.000000000000290
 Root     33 :   315.994545790003700   Change is   -0.000000000000048
 Root     34 :   315.994545790003700   Change is   -0.000000000000435
 Root     35 :   315.994545790003700   Change is   -0.000000000000145
 Root     36 :   317.968282517078300   Change is   -0.000000000000048
 Root     37 :   317.968282517079400   Change is    0.000000000000193
 Root     38 :   317.968282517079800   Change is    0.000000000000193
 Root     39 :   317.968282517146000   Change is    0.000000000000097
 Root     40 :   317.968282518104400   Change is   -0.000000000000193
 Root     41 :   317.968282518104900   Change is    0.000000000000097
 Root     42 :   317.968282518105400   Change is    0.000000000000193
 Root     43 :   424.948209504712300   Change is    0.000000000000628
 Root     44 :   424.948209504712300   Change is   -0.000000000000097
 Root     45 :   424.948209504713100   Change is   -0.000000000000290
 Root     46 :   425.791721913551600   Change is    0.000000000000000
 Root     47 :   425.791721913551600   Change is    0.000000000000870
 Root     48 :   425.791721913552400   Change is    0.000000000000193
 Convergence achieved on expansion vectors.
 ***********************************************************************
 Stability analysis using <AA,BB:AA,BB> singles matrix:
 ***********************************************************************
 1PDM for each excited state written to RWF  633
 Ground to excited state transition densities written to RWF  633

 Eigenvectors of the stability matrix:
 
 Eigenvector   1:      Triplet-A1G  Eigenvalue= 0.8357848  <S**2>=2.000
       1 ->  2         0.70116
 
 Eigenvector   2:      Singlet-A1G  Eigenvalue= 1.0578505  <S**2>=0.000
       1 ->  2         0.70128
 
 Eigenvector   3:      Triplet-T1U  Eigenvalue= 1.2541568  <S**2>=2.000
       1 ->  3         0.47848
       1 ->  4         0.51923
 
 Eigenvector   4:      Triplet-T1U  Eigenvalue= 1.2541568  <S**2>=2.000
       1 ->  3         0.49699
       1 ->  4        -0.47061
       1 ->  5        -0.17731
 
 Eigenvector   5:      Triplet-T1U  Eigenvalue= 1.2541568  <S**2>=2.000
       1 ->  3         0.15482
       1 ->  5         0.68345
 
 Eigenvector   6:      Singlet-T1U  Eigenvalue= 1.5425396  <S**2>=0.000
       1 ->  3         0.59450
       1 ->  4        -0.29761
       1 ->  5         0.23571
 The wavefunction is stable under the perturbations considered.
 Leave Link  914 at Sun Apr 18 07:27:00 2021, MaxMem=   104857600 cpu:             267.1 elap:               5.7
 (Enter /s/ls4/users/knvvv/bin/g16sse/l508.exe)
 The wavefunction is already stable.
 Leave Link  508 at Sun Apr 18 07:27:00 2021, MaxMem=   104857600 cpu:               2.2 elap:               0.1
 (Enter /s/ls4/users/knvvv/bin/g16sse/l601.exe)
 Copying SCF densities to generalized density rwf, IOpCl= 0 IROHF=0.

 **********************************************************************

            Population analysis using the SCF density.

 **********************************************************************

 Orbital symmetries:
       Occupied  (A1G)
       Virtual   (A1G) (T1U) (T1U) (T1U) (A1G) (T2G) (T2G) (T2G)
                 (EG) (EG) (T1U) (T1U) (T1U) (A1G) (A2U) (T2U)
                 (T2U) (T2U) (T1U) (T1U) (T1U) (T2G) (T2G) (T2G)
                 (EG) (EG) (T1U) (T1U) (T1U)
 The electronic state is 1-A1G.
 Alpha  occ. eigenvalues --   -0.75694
 Alpha virt. eigenvalues --    0.33641   0.94518   0.94518   0.94518   2.02251
 Alpha virt. eigenvalues --    3.60890   3.60890   3.60890   3.60890   3.60890
 Alpha virt. eigenvalues --    4.41765   4.41765   4.41765   9.34801  10.97335
 Alpha virt. eigenvalues --   10.97335  10.97335  10.97335  10.97335  10.97335
 Alpha virt. eigenvalues --   10.97335  15.35230  15.35230  15.35230  15.35230
 Alpha virt. eigenvalues --   15.35230  16.68562  16.68562  16.68562
          Condensed to atoms (all electrons):
               1
     1  He   2.000000
 Mulliken charges:
               1
     1  He  -0.000000
 Sum of Mulliken charges =  -0.00000
 Mulliken charges with hydrogens summed into heavy atoms:
               1
     1  He  -0.000000
 Electronic spatial extent (au):  <R**2>=              2.4315
 Charge=             -0.0000 electrons
 Dipole moment (field-independent basis, Debye):
    X=              0.0000    Y=             -0.0000    Z=              0.0000  Tot=              0.0000
 Quadrupole moment (field-independent basis, Debye-Ang):
   XX=             -1.0901   YY=             -1.0901   ZZ=             -1.0901
   XY=              0.0000   XZ=              0.0000   YZ=             -0.0000
 Traceless Quadrupole moment (field-independent basis, Debye-Ang):
   XX=              0.0000   YY=              0.0000   ZZ=              0.0000
   XY=              0.0000   XZ=              0.0000   YZ=             -0.0000
 Octapole moment (field-independent basis, Debye-Ang**2):
  XXX=              0.0000  YYY=             -0.0000  ZZZ=              0.0000  XYY=              0.0000
  XXY=             -0.0000  XXZ=              0.0000  XZZ=              0.0000  YZZ=             -0.0000
  YYZ=              0.0000  XYZ=             -0.0000
 Hexadecapole moment (field-independent basis, Debye-Ang**3):
 XXXX=             -0.6246 YYYY=             -0.6246 ZZZZ=             -0.6246 XXXY=              0.0000
 XXXZ=              0.0000 YYYX=              0.0000 YYYZ=             -0.0000 ZZZX=              0.0000
 ZZZY=             -0.0000 XXYY=             -0.2082 XXZZ=             -0.2082 YYZZ=             -0.2082
 XXYZ=             -0.0000 YYXZ=              0.0000 ZZXY=              0.0000
 N-N= 0.000000000000D+00 E-N=-6.755799648171D+00  KE= 2.874971742614D+00
 No NMR shielding tensors so no spin-rotation constants.
 Leave Link  601 at Sun Apr 18 07:27:01 2021, MaxMem=   104857600 cpu:              51.9 elap:               1.1
 (Enter /s/ls4/users/knvvv/bin/g16sse/l9999.exe)

 Test job not archived.
 1\1\GINC-N178\Stability\RM062X\def2QZVP\He1\KNVVV\18-Apr-2021\0\\#P M0
 62X/Def2QZVP Integral=UltraFineGrid SCF=NoSymm Stable=(RExt, Opt) IOp(
 1/33=1)\\Database calculations.\\0,1\He,0,0.,0.,0.\\Version=ES64L-G16R
 evA.03\State=1-A1G\HF=-2.9046144\RMSD=4.269e-11\Dipole=0.,0.,0.\Quadru
 pole=0.,0.,0.,0.,0.,0.\PG=OH [O(He1)]\\@


 DEPRESSION IS WAITING FOR YOUR SHIP TO COME IN,
 AND FINDING OUT IT'S THE TITANIC.
 Job cpu time:       0 days  0 hours 19 minutes 34.7 seconds.
 Elapsed time:       0 days  0 hours  0 minutes 25.3 seconds.
 File lengths (MBytes):  RWF=      6 Int=      0 D2E=      0 Chk=      1 Scr=      1
 Normal termination of Gaussian 16 at Sun Apr 18 07:27:01 2021.
