 Entering Gaussian System, Link 0=/s/ls4/users/knvvv/bin/g16sse/g16
 Input=data/database/M062X--def2-QZVPPD--h2o_SW49.gjf
 Output=data/database/M062X--def2-QZVPPD--h2o_SW49.log
 Initial command:
 /s/ls4/users/knvvv/bin/g16sse/l1.exe "/s/ls4/users/knvvv/bin/scratch/Gau-42874.inp" -scrdir="/s/ls4/users/knvvv/bin/scratch/"
 Entering Link 1 = /s/ls4/users/knvvv/bin/g16sse/l1.exe PID=     42875.
  
 Copyright (c) 1988,1990,1992,1993,1995,1998,2003,2009,2016,
            Gaussian, Inc.  All Rights Reserved.
  
 This is part of the Gaussian(R) 16 program.  It is based on
 the Gaussian(R) 09 system (copyright 2009, Gaussian, Inc.),
 the Gaussian(R) 03 system (copyright 2003, Gaussian, Inc.),
 the Gaussian(R) 98 system (copyright 1998, Gaussian, Inc.),
 the Gaussian(R) 94 system (copyright 1995, Gaussian, Inc.),
 the Gaussian 92(TM) system (copyright 1992, Gaussian, Inc.),
 the Gaussian 90(TM) system (copyright 1990, Gaussian, Inc.),
 the Gaussian 88(TM) system (copyright 1988, Gaussian, Inc.),
 the Gaussian 86(TM) system (copyright 1986, Carnegie Mellon
 University), and the Gaussian 82(TM) system (copyright 1983,
 Carnegie Mellon University). Gaussian is a federally registered
 trademark of Gaussian, Inc.
  
 This software contains proprietary and confidential information,
 including trade secrets, belonging to Gaussian, Inc.
  
 This software is provided under written license and may be
 used, copied, transmitted, or stored only in accord with that
 written license.
  
 The following legend is applicable only to US Government
 contracts under FAR:
  
                    RESTRICTED RIGHTS LEGEND
  
 Use, reproduction and disclosure by the US Government is
 subject to restrictions as set forth in subparagraphs (a)
 and (c) of the Commercial Computer Software - Restricted
 Rights clause in FAR 52.227-19.
  
 Gaussian, Inc.
 340 Quinnipiac St., Bldg. 40, Wallingford CT 06492
  
  
 ---------------------------------------------------------------
 Warning -- This program may not be used in any manner that
 competes with the business of Gaussian, Inc. or will provide
 assistance to any competitor of Gaussian, Inc.  The licensee
 of this program is prohibited from giving any competitor of
 Gaussian, Inc. access to this program.  By using this program,
 the user acknowledges that Gaussian, Inc. is engaged in the
 business of creating and licensing software in the field of
 computational chemistry and represents and warrants to the
 licensee that it is not a competitor of Gaussian, Inc. and that
 it will not use this program in any manner prohibited above.
 ---------------------------------------------------------------
  

 Cite this work as:
 Gaussian 16, Revision A.03,
 M. J. Frisch, G. W. Trucks, H. B. Schlegel, G. E. Scuseria, 
 M. A. Robb, J. R. Cheeseman, G. Scalmani, V. Barone, 
 G. A. Petersson, H. Nakatsuji, X. Li, M. Caricato, A. V. Marenich, 
 J. Bloino, B. G. Janesko, R. Gomperts, B. Mennucci, H. P. Hratchian, 
 J. V. Ortiz, A. F. Izmaylov, J. L. Sonnenberg, D. Williams-Young, 
 F. Ding, F. Lipparini, F. Egidi, J. Goings, B. Peng, A. Petrone, 
 T. Henderson, D. Ranasinghe, V. G. Zakrzewski, J. Gao, N. Rega, 
 G. Zheng, W. Liang, M. Hada, M. Ehara, K. Toyota, R. Fukuda, 
 J. Hasegawa, M. Ishida, T. Nakajima, Y. Honda, O. Kitao, H. Nakai, 
 T. Vreven, K. Throssell, J. A. Montgomery, Jr., J. E. Peralta, 
 F. Ogliaro, M. J. Bearpark, J. J. Heyd, E. N. Brothers, K. N. Kudin, 
 V. N. Staroverov, T. A. Keith, R. Kobayashi, J. Normand, 
 K. Raghavachari, A. P. Rendell, J. C. Burant, S. S. Iyengar, 
 J. Tomasi, M. Cossi, J. M. Millam, M. Klene, C. Adamo, R. Cammi, 
 J. W. Ochterski, R. L. Martin, K. Morokuma, O. Farkas, 
 J. B. Foresman, and D. J. Fox, Gaussian, Inc., Wallingford CT, 2016.
 
 ******************************************
 Gaussian 16:  ES64L-G16RevA.03 25-Dec-2016
                18-Apr-2021 
 ******************************************
 %RWF=temp23_66703,70GB
 %nprocshared=48
 Will use up to   48 processors via shared memory.
 Default route: MaxDisk=80GB
 ----------------------------------------------------------------------
 #P M062X/GEN Integral=UltraFineGrid SCF=NoSymm Stable=(RExt, Opt) IOp(
 1/33=1)
 ----------------------------------------------------------------------
 1/33=1,38=1,172=1/1;
 2/12=2,17=6,18=5,40=1/2;
 3/5=7,11=2,25=1,30=1,74=-55,75=-5/1,2,3;
 4/9=2/1;
 5/5=2,38=5/2;
 6/7=2,8=2,9=2,10=2,28=1/1;
 8/6=1,10=90,11=11/1;
 9/8=-3,42=1,46=1/14;
 5/5=2,8=3,17=40,38=5/8(-2);
 6/7=2,8=2,9=2,10=2,28=1/1;
 99/5=1,9=1/99;
 Leave Link    1 at Sun Apr 18 02:47:21 2021, MaxMem=           0 cpu:               8.3 elap:               0.2
 (Enter /s/ls4/users/knvvv/bin/g16sse/l101.exe)
 ONIOM data not found on unit 2.
 ----------------------
 Database calculations.
 ----------------------
 TstMul:  ICh=     0
 TstMul:  Mul=     1
 TstMul:  ICh=     0
 TstMul:  Mul=     1
 Symbolic Z-matrix:
 Charge =  0 Multiplicity = 1
 H                     0.67464   1.2911    3.56528 
 O                     0.10149   1.94315   3.97775 
 H                    -0.40856   2.30322   3.24664 
 
 RdStrC is calling ZToCFu for IStruc=1 NZ=     3.
 PrtBox:  NBox=     1 Levels=  1 BoxLen=    8.00 SMaxX=        2.05
          Shift=            0.772070           -2.439833           -6.135262
 Box      1 Number                   0 centers from      1 to      3:
 After GenITR:
 ITRead=  0  0  0
 MicOpt= -1 -1 -1
 ITRead=  0  0  0
 MicOpt= -1 -1 -1
 NAtoms=      3 NQM=        3 NQMF=       0 NMMI=      0 NMMIF=      0
                NMic=       0 NMicF=      0.
                    Isotopes and Nuclear Properties:
 (Nuclear quadrupole moments (NQMom) in fm**2, nuclear magnetic moments (NMagM)
  in nuclear magnetons)

  Atom         1           2           3
 IAtWgt=           1          16           1
 AtmWgt=   1.0078250  15.9949146   1.0078250
 NucSpn=           1           0           1
 AtZEff=  -0.0000000  -0.0000000  -0.0000000
 NQMom=    0.0000000   0.0000000   0.0000000
 NMagM=    2.7928460   0.0000000   2.7928460
 AtZNuc=   1.0000000   8.0000000   1.0000000
 No MM parameters found.
 Leave Link  101 at Sun Apr 18 02:47:22 2021, MaxMem=   104857600 cpu:               8.2 elap:               0.2
 (Enter /s/ls4/users/knvvv/bin/g16sse/l202.exe)
                          Input orientation:                          
 ---------------------------------------------------------------------
 Center     Atomic      Atomic             Coordinates (Angstroms)
 Number     Number       Type             X           Y           Z
 ---------------------------------------------------------------------
      1          1           0        0.674641    1.291104    3.565275
      2          8           0        0.101489    1.943150    3.977745
      3          1           0       -0.408562    2.303216    3.246641
 ---------------------------------------------------------------------
                    Distance matrix (angstroms):
                    1          2          3
     1  H    0.000000
     2  O    0.961144   0.000000
     3  H    1.516320   0.961412   0.000000
 Stoichiometry    H2O
 Framework group  CS[SG(H2O)]
 Deg. of freedom     3
 Full point group                 CS      NOp   2
 Largest Abelian subgroup         CS      NOp   2
 Largest concise Abelian subgroup C1      NOp   1
                         Standard orientation:                         
 ---------------------------------------------------------------------
 Center     Atomic      Atomic             Coordinates (Angstroms)
 Number     Number       Type             X           Y           Z
 ---------------------------------------------------------------------
      1          1           0        0.758160   -0.472561   -0.000000
      2          8           0        0.000000    0.118195    0.000000
      3          1           0       -0.758160   -0.472996    0.000000
 ---------------------------------------------------------------------
 Rotational constants (GHZ):         808.3743233         436.1944617         283.3177299
 Leave Link  202 at Sun Apr 18 02:47:22 2021, MaxMem=   104857600 cpu:              13.9 elap:               0.3
 (Enter /s/ls4/users/knvvv/bin/g16sse/l301.exe)
 General basis read from cards:  (5D, 7F)
 Centers:       1      3
 S 4 1.00
     Exponent=  1.9069169000D+02 Coefficients=  7.0815167000D-04
     Exponent=  2.8605532000D+01 Coefficients=  5.4678827000D-03
     Exponent=  6.5095943000D+00 Coefficients=  2.7966605000D-02
     Exponent=  1.8412455000D+00 Coefficients=  1.0764538000D-01
 S 1 1.00
     Exponent=  5.9853725000D-01 Coefficients=  1.0000000000D+00
 S 1 1.00
     Exponent=  2.1397624000D-01 Coefficients=  1.0000000000D+00
 S 1 1.00
     Exponent=  8.0316286000D-02 Coefficients=  1.0000000000D+00
 P 1 1.00
     Exponent=  2.2920000000D+00 Coefficients=  1.0000000000D+00
 P 1 1.00
     Exponent=  8.3800000000D-01 Coefficients=  1.0000000000D+00
 P 1 1.00
     Exponent=  2.9200000000D-01 Coefficients=  1.0000000000D+00
 P 1 1.00
     Exponent=  8.4063199228D-02 Coefficients=  1.0000000000D+00
 D 1 1.00
     Exponent=  2.0620000000D+00 Coefficients=  1.0000000000D+00
 D 1 1.00
     Exponent=  6.6200000000D-01 Coefficients=  1.0000000000D+00
 F 1 1.00
     Exponent=  1.3970000000D+00 Coefficients=  1.0000000000D+00
 ****
 Centers:       2
 S 8 1.00
     Exponent=  1.1650646908D+05 Coefficients=  4.0383857939D-05
     Exponent=  1.7504349724D+04 Coefficients=  3.1255139004D-04
     Exponent=  3.9934513230D+03 Coefficients=  1.6341473495D-03
     Exponent=  1.1330063186D+03 Coefficients=  6.8283224757D-03
     Exponent=  3.6999569594D+02 Coefficients=  2.4124410221D-02
     Exponent=  1.3362074349D+02 Coefficients=  7.2730206154D-02
     Exponent=  5.2035643649D+01 Coefficients=  1.7934429892D-01
     Exponent=  2.1461939313D+01 Coefficients=  3.3059588895D-01
 S 2 1.00
     Exponent=  8.9835051252D+01 Coefficients=  9.6468652996D-02
     Exponent=  2.6428010844D+01 Coefficients=  9.4117481120D-01
 S 1 1.00
     Exponent=  9.2822824649D+00 Coefficients=  1.0000000000D+00
 S 1 1.00
     Exponent=  4.0947728533D+00 Coefficients=  1.0000000000D+00
 S 1 1.00
     Exponent=  1.3255349078D+00 Coefficients=  1.0000000000D+00
 S 1 1.00
     Exponent=  5.1877230787D-01 Coefficients=  1.0000000000D+00
 S 1 1.00
     Exponent=  1.9772676454D-01 Coefficients=  1.0000000000D+00
 S 1 1.00
     Exponent=  6.9638535104D-02 Coefficients=  1.0000000000D+00
 P 5 1.00
     Exponent=  1.9115255810D+02 Coefficients=  2.5115697705D-03
     Exponent=  4.5233356739D+01 Coefficients=  2.0039240864D-02
     Exponent=  1.4353465922D+01 Coefficients=  9.3609064762D-02
     Exponent=  5.2422371832D+00 Coefficients=  3.0618127124D-01
     Exponent=  2.0792418599D+00 Coefficients=  6.7810501439D-01
 P 1 1.00
     Exponent=  8.4282371424D-01 Coefficients=  1.0000000000D+00
 P 1 1.00
     Exponent=  3.3617694891D-01 Coefficients=  1.0000000000D+00
 P 1 1.00
     Exponent=  1.2863997974D-01 Coefficients=  1.0000000000D+00
 P 1 1.00
     Exponent=  4.3598162776D-02 Coefficients=  1.0000000000D+00
 D 1 1.00
     Exponent=  3.7750000000D+00 Coefficients=  1.0000000000D+00
 D 1 1.00
     Exponent=  1.3000000000D+00 Coefficients=  1.0000000000D+00
 D 1 1.00
     Exponent=  4.4400000000D-01 Coefficients=  1.0000000000D+00
 D 1 1.00
     Exponent=  1.2546378695D-01 Coefficients=  1.0000000000D+00
 F 1 1.00
     Exponent=  2.6660000000D+00 Coefficients=  1.0000000000D+00
 F 1 1.00
     Exponent=  8.5900000000D-01 Coefficients=  1.0000000000D+00
 G 1 1.00
     Exponent=  1.8460000000D+00 Coefficients=  1.0000000000D+00
 ****
 Ernie: Thresh=  0.10000D-02 Tol=  0.10000D-05 Strict=F.
 There are   107 symmetry adapted cartesian basis functions of A'  symmetry.
 There are    51 symmetry adapted cartesian basis functions of A"  symmetry.
 There are    87 symmetry adapted basis functions of A'  symmetry.
 There are    45 symmetry adapted basis functions of A"  symmetry.
   132 basis functions,   184 primitive gaussians,   158 cartesian basis functions
     5 alpha electrons        5 beta electrons
       nuclear repulsion energy         9.1568814502 Hartrees.
 IExCor= 4336 DFT=T Ex+Corr=M062X ExCW=0 ScaHFX=  0.540000
 ScaDFX=  1.000000  1.000000  1.000000  1.000000 ScalE2=  1.000000  1.000000
 IRadAn=      5 IRanWt=     -1 IRanGd=            0 ICorTp=0 IEmpDi=  4
 NAtoms=    3 NActive=    3 NUniq=    3 SFac= 1.00D+00 NAtFMM=   60 NAOKFM=F Big=F
 Integral buffers will be    131072 words long.
 Raffenetti 2 integral format.
 Two-electron integral symmetry is turned on.
 Leave Link  301 at Sun Apr 18 02:47:22 2021, MaxMem=   104857600 cpu:               9.0 elap:               0.2
 (Enter /s/ls4/users/knvvv/bin/g16sse/l302.exe)
 NPDir=0 NMtPBC=     1 NCelOv=     1 NCel=       1 NClECP=     1 NCelD=      1
         NCelK=      1 NCelE2=     1 NClLst=     1 CellRange=     0.0.
 One-electron integrals computed using PRISM.
 One-electron integral symmetry used in STVInt
 PrsmSu:  requested number of processors reduced to:   4 ShMem   1 Linda.
 PrsmSu:  requested number of processors reduced to:  21 ShMem   1 Linda.
 NBasis=   132 RedAO= T EigKep=  1.36D-04  NBF=    87    45
 NBsUse=   132 1.00D-06 EigRej= -1.00D+00 NBFU=    87    45
 Precomputing XC quadrature grid using
 IXCGrd= 4 IRadAn=           5 IRanWt=          -1 IRanGd=           0 AccXCQ= 0.00D+00.
 Generated NRdTot=       0 NPtTot=           0 NUsed=           0 NTot=          32
 NSgBfM=   158   158   158   158   158 MxSgAt=     3 MxSgA2=     3.
 Leave Link  302 at Sun Apr 18 02:47:25 2021, MaxMem=   104857600 cpu:             107.6 elap:               2.4
 (Enter /s/ls4/users/knvvv/bin/g16sse/l303.exe)
 DipDrv:  MaxL=1.
 Leave Link  303 at Sun Apr 18 02:47:25 2021, MaxMem=   104857600 cpu:              24.6 elap:               0.5
 (Enter /s/ls4/users/knvvv/bin/g16sse/l401.exe)
 SCF N**3 symmetry information disabled.
 ExpMin= 4.36D-02 ExpMax= 1.17D+05 ExpMxC= 1.13D+03 IAcc=3 IRadAn=         5 AccDes= 0.00D+00
 Harris functional with IExCor= 1009 and IRadAn=       5 diagonalized for initial guess.
 HarFok:  IExCor= 1009 AccDes= 0.00D+00 IRadAn=         5 IDoV= 1 UseB2=F ITyADJ=14
 ICtDFT=  3500011 ScaDFX=  1.000000  1.000000  1.000000  1.000000
 FoFCou: FMM=F IPFlag=           0 FMFlag=      100000 FMFlg1=           0
         NFxFlg=           0 DoJE=T BraDBF=F KetDBF=T FulRan=T
         wScrn=  0.000000 ICntrl=       500 IOpCl=  0 I1Cent=   200000004 NGrid=           0
         NMat0=    1 NMatS0=      1 NMatT0=    0 NMatD0=    1 NMtDS0=    0 NMtDT0=    0
 Petite list used in FoFCou.
 CoulSu:  requested number of processors reduced to:  21 ShMem   1 Linda.
 CoulSu:  requested number of processors reduced to:  21 ShMem   1 Linda.
 CoulSu:  requested number of processors reduced to:  21 ShMem   1 Linda.
 CoulSu:  requested number of processors reduced to:  21 ShMem   1 Linda.
 Harris En= -76.4318661238417    
 JPrj=0 DoOrth=F DoCkMO=F.
 Initial guess orbital symmetries:
       Occupied  (A') (A') (A') (A') (A")
       Virtual   (A') (A') (A') (A") (A') (A') (A') (A") (A") (A')
                 (A') (A') (A') (A') (A") (A') (A") (A') (A") (A')
                 (A') (A') (A") (A") (A') (A') (A') (A') (A') (A')
                 (A") (A') (A") (A') (A') (A") (A') (A") (A') (A')
                 (A') (A") (A') (A') (A") (A") (A') (A') (A") (A")
                 (A') (A') (A') (A') (A') (A') (A") (A") (A') (A")
                 (A') (A') (A") (A') (A') (A") (A') (A') (A") (A')
                 (A') (A") (A') (A") (A') (A") (A') (A') (A") (A')
                 (A') (A") (A") (A') (A') (A') (A') (A") (A") (A")
                 (A') (A') (A") (A') (A') (A') (A") (A") (A') (A')
                 (A') (A") (A') (A') (A") (A') (A') (A") (A") (A')
                 (A") (A') (A") (A') (A") (A') (A') (A') (A') (A')
                 (A") (A") (A') (A') (A') (A') (A')
 The electronic state of the initial guess is 1-A'.
 Leave Link  401 at Sun Apr 18 02:47:27 2021, MaxMem=   104857600 cpu:              72.3 elap:               1.7
 (Enter /s/ls4/users/knvvv/bin/g16sse/l502.exe)
 Keep R1 ints in memory in symmetry-blocked form, NReq=92806727.
 FoFCou: FMM=F IPFlag=           0 FMFlag=           0 FMFlg1=           0
         NFxFlg=           0 DoJE=F BraDBF=F KetDBF=F FulRan=T
         wScrn=  0.000000 ICntrl=       600 IOpCl=  0 I1Cent=           0 NGrid=           0
         NMat0=    1 NMatS0=   8778 NMatT0=    0 NMatD0=    1 NMtDS0=    0 NMtDT0=    0
 Petite list used in FoFCou.
 CoulSu:  requested number of processors reduced to:  14 ShMem   1 Linda.
 Closed shell SCF:
 Using DIIS extrapolation, IDIIS=  1040.
 NGot=   104857600 LenX=    85286723 LenY=    85261318
 Requested convergence on RMS density matrix=1.00D-08 within 128 cycles.
 Requested convergence on MAX density matrix=1.00D-06.
 Requested convergence on             energy=1.00D-06.
 No special actions if energy rises.

 Cycle   1  Pass 1  IDiag  1:
 E= -76.3577351593676    
 DIIS: error= 4.36D-02 at cycle   1 NSaved=   1.
 NSaved= 1 IEnMin= 1 EnMin= -76.3577351593676     IErMin= 1 ErrMin= 4.36D-02
 ErrMax= 4.36D-02  0.00D+00 EMaxC= 1.00D-01 BMatC= 1.45D-01 BMatP= 1.45D-01
 IDIUse=3 WtCom= 5.64D-01 WtEn= 4.36D-01
 Coeff-Com:  0.100D+01
 Coeff-En:   0.100D+01
 Coeff:      0.100D+01
 Gap=     0.274 Goal=   None    Shift=    0.000
 GapD=    0.274 DampG=1.000 DampE=0.500 DampFc=0.5000 IDamp=-1.
 Damping current iteration by 5.00D-01
 RMSDP=1.89D-03 MaxDP=6.61D-02              OVMax= 1.75D-01

 Cycle   2  Pass 1  IDiag  1:
 E= -76.3904924495707     Delta-E=       -0.032757290203 Rises=F Damp=T
 DIIS: error= 2.12D-02 at cycle   2 NSaved=   2.
 NSaved= 2 IEnMin= 2 EnMin= -76.3904924495707     IErMin= 2 ErrMin= 2.12D-02
 ErrMax= 2.12D-02  0.00D+00 EMaxC= 1.00D-01 BMatC= 1.35D-02 BMatP= 1.45D-01
 IDIUse=3 WtCom= 7.88D-01 WtEn= 2.12D-01
 Coeff-Com:  0.580D-01 0.942D+00
 Coeff-En:   0.186D+00 0.814D+00
 Coeff:      0.851D-01 0.915D+00
 Gap=     0.412 Goal=   None    Shift=    0.000
 RMSDP=6.30D-04 MaxDP=1.31D-02 DE=-3.28D-02 OVMax= 1.05D-01

 Cycle   3  Pass 1  IDiag  1:
 E= -76.4365881393427     Delta-E=       -0.046095689772 Rises=F Damp=F
 DIIS: error= 2.03D-03 at cycle   3 NSaved=   3.
 NSaved= 3 IEnMin= 3 EnMin= -76.4365881393427     IErMin= 3 ErrMin= 2.03D-03
 ErrMax= 2.03D-03  0.00D+00 EMaxC= 1.00D-01 BMatC= 2.48D-04 BMatP= 1.35D-02
 IDIUse=3 WtCom= 9.80D-01 WtEn= 2.03D-02
 Coeff-Com: -0.347D-01 0.643D-01 0.970D+00
 Coeff-En:   0.000D+00 0.000D+00 0.100D+01
 Coeff:     -0.340D-01 0.630D-01 0.971D+00
 Gap=     0.413 Goal=   None    Shift=    0.000
 RMSDP=7.37D-05 MaxDP=3.06D-03 DE=-4.61D-02 OVMax= 4.24D-03

 Cycle   4  Pass 1  IDiag  1:
 E= -76.4367618234409     Delta-E=       -0.000173684098 Rises=F Damp=F
 DIIS: error= 1.80D-04 at cycle   4 NSaved=   4.
 NSaved= 4 IEnMin= 4 EnMin= -76.4367618234409     IErMin= 4 ErrMin= 1.80D-04
 ErrMax= 1.80D-04  0.00D+00 EMaxC= 1.00D-01 BMatC= 2.70D-06 BMatP= 2.48D-04
 IDIUse=3 WtCom= 9.98D-01 WtEn= 1.80D-03
 Coeff-Com:  0.532D-03-0.150D-02 0.391D-01 0.962D+00
 Coeff-En:   0.000D+00 0.000D+00 0.000D+00 0.100D+01
 Coeff:      0.531D-03-0.149D-02 0.390D-01 0.962D+00
 Gap=     0.414 Goal=   None    Shift=    0.000
 RMSDP=2.41D-05 MaxDP=5.99D-04 DE=-1.74D-04 OVMax= 6.00D-04

 Cycle   5  Pass 1  IDiag  1:
 E= -76.4367634907217     Delta-E=       -0.000001667281 Rises=F Damp=F
 DIIS: error= 4.86D-05 at cycle   5 NSaved=   5.
 NSaved= 5 IEnMin= 5 EnMin= -76.4367634907217     IErMin= 5 ErrMin= 4.86D-05
 ErrMax= 4.86D-05  0.00D+00 EMaxC= 1.00D-01 BMatC= 8.01D-08 BMatP= 2.70D-06
 IDIUse=1 WtCom= 1.00D+00 WtEn= 0.00D+00
 Coeff-Com:  0.145D-02-0.258D-02-0.316D-01 0.464D-01 0.986D+00
 Coeff:      0.145D-02-0.258D-02-0.316D-01 0.464D-01 0.986D+00
 Gap=     0.414 Goal=   None    Shift=    0.000
 RMSDP=4.40D-06 MaxDP=1.13D-04 DE=-1.67D-06 OVMax= 1.78D-04

 Cycle   6  Pass 1  IDiag  1:
 E= -76.4367636013969     Delta-E=       -0.000000110675 Rises=F Damp=F
 DIIS: error= 7.79D-06 at cycle   6 NSaved=   6.
 NSaved= 6 IEnMin= 6 EnMin= -76.4367636013969     IErMin= 6 ErrMin= 7.79D-06
 ErrMax= 7.79D-06  0.00D+00 EMaxC= 1.00D-01 BMatC= 2.91D-09 BMatP= 8.01D-08
 IDIUse=1 WtCom= 1.00D+00 WtEn= 0.00D+00
 Coeff-Com: -0.153D-03 0.212D-03 0.112D-02-0.267D-01-0.676D-02 0.103D+01
 Coeff:     -0.153D-03 0.212D-03 0.112D-02-0.267D-01-0.676D-02 0.103D+01
 Gap=     0.414 Goal=   None    Shift=    0.000
 RMSDP=5.46D-07 MaxDP=2.34D-05 DE=-1.11D-07 OVMax= 3.41D-05

 Cycle   7  Pass 1  IDiag  1:
 E= -76.4367636059636     Delta-E=       -0.000000004567 Rises=F Damp=F
 DIIS: error= 1.44D-06 at cycle   7 NSaved=   7.
 NSaved= 7 IEnMin= 7 EnMin= -76.4367636059636     IErMin= 7 ErrMin= 1.44D-06
 ErrMax= 1.44D-06  0.00D+00 EMaxC= 1.00D-01 BMatC= 8.64D-11 BMatP= 2.91D-09
 IDIUse=1 WtCom= 1.00D+00 WtEn= 0.00D+00
 Coeff-Com: -0.257D-04 0.630D-04 0.418D-03 0.113D-04-0.274D-01-0.846D-01
 Coeff-Com:  0.111D+01
 Coeff:     -0.257D-04 0.630D-04 0.418D-03 0.113D-04-0.274D-01-0.846D-01
 Coeff:      0.111D+01
 Gap=     0.414 Goal=   None    Shift=    0.000
 RMSDP=1.22D-07 MaxDP=5.00D-06 DE=-4.57D-09 OVMax= 9.26D-06

 Cycle   8  Pass 1  IDiag  1:
 E= -76.4367636061716     Delta-E=       -0.000000000208 Rises=F Damp=F
 DIIS: error= 2.23D-07 at cycle   8 NSaved=   8.
 NSaved= 8 IEnMin= 8 EnMin= -76.4367636061716     IErMin= 8 ErrMin= 2.23D-07
 ErrMax= 2.23D-07  0.00D+00 EMaxC= 1.00D-01 BMatC= 1.35D-12 BMatP= 8.64D-11
 IDIUse=1 WtCom= 1.00D+00 WtEn= 0.00D+00
 Coeff-Com:  0.613D-05-0.115D-04-0.463D-04 0.289D-03 0.360D-02 0.100D-02
 Coeff-Com: -0.197D+00 0.119D+01
 Coeff:      0.613D-05-0.115D-04-0.463D-04 0.289D-03 0.360D-02 0.100D-02
 Coeff:     -0.197D+00 0.119D+01
 Gap=     0.414 Goal=   None    Shift=    0.000
 RMSDP=1.39D-08 MaxDP=3.87D-07 DE=-2.08D-10 OVMax= 1.29D-06

 Cycle   9  Pass 1  IDiag  1:
 E= -76.4367636061746     Delta-E=       -0.000000000003 Rises=F Damp=F
 DIIS: error= 3.11D-08 at cycle   9 NSaved=   9.
 NSaved= 9 IEnMin= 9 EnMin= -76.4367636061746     IErMin= 9 ErrMin= 3.11D-08
 ErrMax= 3.11D-08  0.00D+00 EMaxC= 1.00D-01 BMatC= 3.01D-14 BMatP= 1.35D-12
 IDIUse=1 WtCom= 1.00D+00 WtEn= 0.00D+00
 Coeff-Com: -0.202D-06 0.209D-06 0.243D-05 0.399D-04-0.402D-03-0.110D-02
 Coeff-Com:  0.270D-01-0.192D+00 0.117D+01
 Coeff:     -0.202D-06 0.209D-06 0.243D-05 0.399D-04-0.402D-03-0.110D-02
 Coeff:      0.270D-01-0.192D+00 0.117D+01
 Gap=     0.414 Goal=   None    Shift=    0.000
 RMSDP=2.51D-09 MaxDP=8.30D-08 DE=-2.98D-12 OVMax= 1.08D-07

 SCF Done:  E(RM062X) =  -76.4367636062     A.U. after    9 cycles
            NFock=  9  Conv=0.25D-08     -V/T= 2.0033
 KE= 7.618351564810D+01 PE=-1.991532199486D+02 EE= 3.737605924413D+01
 Leave Link  502 at Sun Apr 18 02:47:31 2021, MaxMem=   104857600 cpu:             161.6 elap:               4.0
 (Enter /s/ls4/users/knvvv/bin/g16sse/l601.exe)
 Copying SCF densities to generalized density rwf, IOpCl= 0 IROHF=0.

 **********************************************************************

            Population analysis using the SCF density.

 **********************************************************************

 Orbital symmetries:
       Occupied  (A') (A') (A') (A') (A")
       Virtual   (A') (A') (A') (A") (A') (A') (A") (A') (A") (A')
                 (A') (A') (A') (A') (A") (A') (A") (A') (A") (A')
                 (A') (A') (A") (A") (A') (A') (A') (A') (A') (A')
                 (A') (A") (A") (A') (A') (A") (A') (A") (A') (A')
                 (A') (A") (A') (A") (A') (A") (A') (A') (A") (A')
                 (A") (A') (A') (A') (A') (A') (A") (A') (A") (A")
                 (A') (A') (A') (A") (A') (A") (A') (A') (A") (A')
                 (A') (A") (A') (A") (A') (A") (A') (A') (A") (A')
                 (A') (A") (A") (A') (A') (A') (A") (A') (A") (A')
                 (A") (A') (A") (A') (A') (A') (A") (A') (A") (A')
                 (A') (A') (A") (A') (A") (A') (A') (A") (A') (A")
                 (A") (A') (A") (A') (A') (A") (A') (A') (A') (A')
                 (A") (A") (A') (A') (A') (A') (A')
 The electronic state is 1-A'.
 Alpha  occ. eigenvalues --  -19.62945  -1.13633  -0.60926  -0.47790  -0.40354
 Alpha virt. eigenvalues --    0.01035   0.04194   0.06377   0.06391   0.13472
 Alpha virt. eigenvalues --    0.14831   0.17186   0.18754   0.19462   0.23239
 Alpha virt. eigenvalues --    0.25591   0.27690   0.35470   0.36775   0.40112
 Alpha virt. eigenvalues --    0.44847   0.46087   0.46101   0.51350   0.53139
 Alpha virt. eigenvalues --    0.54556   0.65021   0.77215   0.81436   0.83594
 Alpha virt. eigenvalues --    0.94889   1.00374   1.05602   1.11019   1.14730
 Alpha virt. eigenvalues --    1.33120   1.38610   1.44138   1.46155   1.50864
 Alpha virt. eigenvalues --    1.60084   1.63039   1.88803   1.94684   2.01292
 Alpha virt. eigenvalues --    2.03895   2.25298   2.26779   2.44046   2.44417
 Alpha virt. eigenvalues --    2.45911   2.55638   2.60745   2.65425   2.68298
 Alpha virt. eigenvalues --    2.69587   2.89214   3.11289   3.22452   3.27029
 Alpha virt. eigenvalues --    3.40616   3.69343   3.88042   3.90222   3.92987
 Alpha virt. eigenvalues --    4.06428   4.16893   4.24641   4.25277   4.39920
 Alpha virt. eigenvalues --    4.56208   4.78783   4.79478   5.29721   5.30225
 Alpha virt. eigenvalues --    5.41888   5.60351   5.82861   5.85729   5.95098
 Alpha virt. eigenvalues --    6.32085   6.40977   6.65611   6.92282   7.02627
 Alpha virt. eigenvalues --    7.10543   7.15541   7.24460   7.25620   7.30850
 Alpha virt. eigenvalues --    7.31535   7.52479   7.54188   7.65051   7.70922
 Alpha virt. eigenvalues --    7.71600   7.71656   7.82448   7.96169   8.17483
 Alpha virt. eigenvalues --    8.36144   8.44943   8.57893   8.62202   8.85927
 Alpha virt. eigenvalues --    8.95581   9.71129   9.71164  10.08881  10.14671
 Alpha virt. eigenvalues --   10.52256  10.57959  10.77944  10.91719  10.98083
 Alpha virt. eigenvalues --   11.14412  11.30580  11.56230  11.58049  11.65906
 Alpha virt. eigenvalues --   11.69493  12.11718  12.66770  13.26420  13.43621
 Alpha virt. eigenvalues --   13.46331  13.85377  14.22516  16.43856  16.44178
 Alpha virt. eigenvalues --   48.33552 251.40862
          Condensed to atoms (all electrons):
               1          2          3
     1  H    0.384498   0.276786  -0.018131
     2  O    0.276786   8.159989   0.276826
     3  H   -0.018131   0.276826   0.384552
 Mulliken charges:
               1
     1  H    0.356848
     2  O   -0.713601
     3  H    0.356753
 Sum of Mulliken charges =  -0.00000
 Mulliken charges with hydrogens summed into heavy atoms:
               1
     2  O   -0.000000
 Electronic spatial extent (au):  <R**2>=             19.8450
 Charge=             -0.0000 electrons
 Dipole moment (field-independent basis, Debye):
    X=              0.0001    Y=             -1.9056    Z=             -0.0000  Tot=              1.9056
 Quadrupole moment (field-independent basis, Debye-Ang):
   XX=             -4.4111   YY=             -6.3717   ZZ=             -7.7036
   XY=              0.0007   XZ=              0.0000   YZ=             -0.0000
 Traceless Quadrupole moment (field-independent basis, Debye-Ang):
   XX=              1.7510   YY=             -0.2096   ZZ=             -1.5414
   XY=              0.0007   XZ=              0.0000   YZ=             -0.0000
 Octapole moment (field-independent basis, Debye-Ang**2):
  XXX=              0.0004  YYY=             -1.0321  ZZZ=             -0.0000  XYY=             -0.0005
  XXY=             -1.3422  XXZ=             -0.0000  XZZ=              0.0001  YZZ=             -0.2204
  YYZ=             -0.0000  XYZ=              0.0000
 Hexadecapole moment (field-independent basis, Debye-Ang**3):
 XXXX=             -6.4260 YYYY=             -7.6997 ZZZZ=             -7.2861 XXXY=             -0.0000
 XXXZ=              0.0000 YYYX=              0.0000 YYYZ=             -0.0000 ZZZX=              0.0000
 ZZZY=             -0.0000 XXYY=             -2.0217 XXZZ=             -2.6109 YYZZ=             -2.5491
 XXYZ=             -0.0000 YYXZ=              0.0000 ZZXY=             -0.0002
 N-N= 9.156881450230D+00 E-N=-1.991532207315D+02  KE= 7.618351564810D+01
 PrsmSu:  requested number of processors reduced to:  21 ShMem   1 Linda.
 No NMR shielding tensors so no spin-rotation constants.
 Leave Link  601 at Sun Apr 18 02:47:32 2021, MaxMem=   104857600 cpu:              50.8 elap:               1.2
 (Enter /s/ls4/users/knvvv/bin/g16sse/l801.exe)
 DoSCS=F DFT=T ScalE2(SS,OS)=  1.000000  1.000000
 Range of M.O.s used for correlation:     1   132
 NBasis=   132 NAE=     5 NBE=     5 NFC=     0 NFV=     0
 NROrb=    132 NOA=     5 NOB=     5 NVA=   127 NVB=   127

 **** Warning!!: The largest alpha MO coefficient is  0.26924295D+02

 Leave Link  801 at Sun Apr 18 02:47:32 2021, MaxMem=   104857600 cpu:               3.1 elap:               0.1
 (Enter /s/ls4/users/knvvv/bin/g16sse/l914.exe)
 RHF ground state
 Doing stability rather than CIS.
 Two-electron integrals replicated using symmetry.
 MDV=   104857600 DFT=T DoStab=T Mixed=T DoRPA=F DoScal=F NonHer=F
 Making orbital integer symmetry assigments:
 Orbital symmetries:
       Occupied  (A') (A') (A') (A') (A")
       Virtual   (A') (A') (A') (A") (A') (A') (A") (A') (A") (A')
                 (A') (A') (A') (A') (A") (A') (A") (A') (A") (A')
                 (A') (A') (A") (A") (A') (A') (A') (A') (A') (A')
                 (A') (A") (A") (A') (A') (A") (A') (A") (A') (A')
                 (A') (A") (A') (A") (A') (A") (A') (A') (A") (A')
                 (A") (A') (A') (A') (A') (A') (A") (A') (A") (A")
                 (A') (A') (A') (A") (A') (A") (A') (A') (A") (A')
                 (A') (A") (A') (A") (A') (A") (A') (A') (A") (A')
                 (A') (A") (A") (A') (A') (A') (A") (A') (A") (A')
                 (A") (A') (A") (A') (A') (A') (A") (A') (A") (A')
                 (A') (A') (A") (A') (A") (A') (A') (A") (A') (A")
                 (A") (A') (A") (A') (A') (A") (A') (A') (A') (A')
                 (A") (A") (A') (A') (A') (A') (A')
    24 initial guesses have been made.
 Convergence on wavefunction:    0.001000000000000
 Davidson Disk Diagonalization:  ConvIn= 1.00D-03 SkipCon=T Conv= 1.00D-03.
 Max sub-space:  2000 roots to seek:    24 dimension of matrix:         1270
 Iteration     1 Dimension    24 NMult     0 NNew     24
 Estimated number of processors is:   20
 CISAX will form     1 AO SS matrices at one time.
 NMat=     1 NSing=     1 JSym2X= 2.
 FoFJK:  IHMeth= 1 ICntrl=       0 DoSepK=F KAlg= 0 I1Cent=           0 FoldK=F
 IRaf= 990000000 NMat=       1 IRICut=       1 DoRegI=T DoRafI=F ISym2E= 2 IDoP0=0 IntGTp=1.
 FoFCou: FMM=F IPFlag=           0 FMFlag=      100000 FMFlg1=           0
         NFxFlg=           0 DoJE=F BraDBF=F KetDBF=F FulRan=T
         wScrn=  0.000000 ICntrl=         0 IOpCl=  0 I1Cent=           0 NGrid=           0
         NMat0=    1 NMatS0=      1 NMatT0=    0 NMatD0=    1 NMtDS0=    0 NMtDT0=    0
 Integrals replicated using symmetry in FoFCou.
 CoulSu:  requested number of processors reduced to:  21 ShMem   1 Linda.
 NMat=     1 NSing=     1 JSym2X= 2.
 CoulSu:  requested number of processors reduced to:  21 ShMem   1 Linda.
 NMat=     1 NSing=     1 JSym2X= 2.
 CoulSu:  requested number of processors reduced to:  21 ShMem   1 Linda.
 NMat=     1 NSing=     1 JSym2X= 2.
 CoulSu:  requested number of processors reduced to:  21 ShMem   1 Linda.
 NMat=     1 NSing=     1 JSym2X= 2.
 CoulSu:  requested number of processors reduced to:  21 ShMem   1 Linda.
 NMat=     1 NSing=     1 JSym2X= 2.
 CoulSu:  requested number of processors reduced to:  21 ShMem   1 Linda.
 NMat=     1 NSing=     1 JSym2X= 2.
 CoulSu:  requested number of processors reduced to:  21 ShMem   1 Linda.
 NMat=     1 NSing=     1 JSym2X= 2.
 CoulSu:  requested number of processors reduced to:  21 ShMem   1 Linda.
 NMat=     1 NSing=     1 JSym2X= 2.
 CoulSu:  requested number of processors reduced to:  21 ShMem   1 Linda.
 NMat=     1 NSing=     1 JSym2X= 2.
 CoulSu:  requested number of processors reduced to:  21 ShMem   1 Linda.
 NMat=     1 NSing=     1 JSym2X= 2.
 CoulSu:  requested number of processors reduced to:  21 ShMem   1 Linda.
 NMat=     1 NSing=     1 JSym2X= 2.
 CoulSu:  requested number of processors reduced to:  21 ShMem   1 Linda.
 NMat=     1 NSing=     0 JSym2X= 2.
 CoulSu:  requested number of processors reduced to:  21 ShMem   1 Linda.
 NMat=     1 NSing=     0 JSym2X= 2.
 CoulSu:  requested number of processors reduced to:  21 ShMem   1 Linda.
 NMat=     1 NSing=     0 JSym2X= 2.
 CoulSu:  requested number of processors reduced to:  21 ShMem   1 Linda.
 NMat=     1 NSing=     0 JSym2X= 2.
 CoulSu:  requested number of processors reduced to:  21 ShMem   1 Linda.
 NMat=     1 NSing=     0 JSym2X= 2.
 CoulSu:  requested number of processors reduced to:  21 ShMem   1 Linda.
 NMat=     1 NSing=     0 JSym2X= 2.
 CoulSu:  requested number of processors reduced to:  21 ShMem   1 Linda.
 NMat=     1 NSing=     0 JSym2X= 2.
 CoulSu:  requested number of processors reduced to:  21 ShMem   1 Linda.
 NMat=     1 NSing=     0 JSym2X= 2.
 CoulSu:  requested number of processors reduced to:  21 ShMem   1 Linda.
 NMat=     1 NSing=     0 JSym2X= 2.
 CoulSu:  requested number of processors reduced to:  21 ShMem   1 Linda.
 NMat=     1 NSing=     0 JSym2X= 2.
 CoulSu:  requested number of processors reduced to:  21 ShMem   1 Linda.
 NMat=     1 NSing=     0 JSym2X= 2.
 CoulSu:  requested number of processors reduced to:  21 ShMem   1 Linda.
 NMat=     1 NSing=     0 JSym2X= 2.
 CoulSu:  requested number of processors reduced to:  21 ShMem   1 Linda.
 New state      1 was old state      2
 Excitation Energies [eV] at current iteration:
 Root      1 :     7.792401799998389
 Root      2 :     8.119727553618775
 Root      3 :     9.351856316723689
 Root      4 :     9.506715270508796
 Root      5 :    10.037080009388660
 Root      6 :    10.074610541755940
 Root      7 :    10.173587985806820
 Root      8 :    10.192445286728010
 Root      9 :    10.284677536624240
 Root     10 :    11.259238646383180
 Root     11 :    11.475483923793020
 Root     12 :    11.529841438090140
 Root     13 :    11.651150112790950
 Root     14 :    11.661015098023680
 Root     15 :    12.017347011749700
 Root     16 :    12.108673115050600
 Root     17 :    12.201043418189850
 Root     18 :    12.241208682904410
 Root     19 :    12.267506107016860
 Root     20 :    13.015282449520260
 Root     21 :    13.152577430238410
 Root     22 :    13.178811813622720
 Root     23 :    13.200680256152320
 Root     24 :    13.397761255286600
 Iteration     2 Dimension    48 NMult    24 NNew     24
 Estimated number of processors is:   20
 CISAX will form     1 AO SS matrices at one time.
 NMat=     1 NSing=     1 JSym2X= 2.
 CoulSu:  requested number of processors reduced to:  21 ShMem   1 Linda.
 NMat=     1 NSing=     1 JSym2X= 2.
 CoulSu:  requested number of processors reduced to:  21 ShMem   1 Linda.
 NMat=     1 NSing=     1 JSym2X= 2.
 CoulSu:  requested number of processors reduced to:  21 ShMem   1 Linda.
 NMat=     1 NSing=     1 JSym2X= 2.
 CoulSu:  requested number of processors reduced to:  21 ShMem   1 Linda.
 NMat=     1 NSing=     1 JSym2X= 2.
 CoulSu:  requested number of processors reduced to:  21 ShMem   1 Linda.
 NMat=     1 NSing=     1 JSym2X= 2.
 CoulSu:  requested number of processors reduced to:  21 ShMem   1 Linda.
 NMat=     1 NSing=     1 JSym2X= 2.
 CoulSu:  requested number of processors reduced to:  21 ShMem   1 Linda.
 NMat=     1 NSing=     1 JSym2X= 2.
 CoulSu:  requested number of processors reduced to:  21 ShMem   1 Linda.
 NMat=     1 NSing=     1 JSym2X= 2.
 CoulSu:  requested number of processors reduced to:  21 ShMem   1 Linda.
 NMat=     1 NSing=     1 JSym2X= 2.
 CoulSu:  requested number of processors reduced to:  21 ShMem   1 Linda.
 NMat=     1 NSing=     1 JSym2X= 2.
 CoulSu:  requested number of processors reduced to:  21 ShMem   1 Linda.
 NMat=     1 NSing=     1 JSym2X= 2.
 CoulSu:  requested number of processors reduced to:  21 ShMem   1 Linda.
 NMat=     1 NSing=     0 JSym2X= 2.
 CoulSu:  requested number of processors reduced to:  21 ShMem   1 Linda.
 NMat=     1 NSing=     0 JSym2X= 2.
 CoulSu:  requested number of processors reduced to:  21 ShMem   1 Linda.
 NMat=     1 NSing=     0 JSym2X= 2.
 CoulSu:  requested number of processors reduced to:  21 ShMem   1 Linda.
 NMat=     1 NSing=     0 JSym2X= 2.
 CoulSu:  requested number of processors reduced to:  21 ShMem   1 Linda.
 NMat=     1 NSing=     0 JSym2X= 2.
 CoulSu:  requested number of processors reduced to:  21 ShMem   1 Linda.
 NMat=     1 NSing=     0 JSym2X= 2.
 CoulSu:  requested number of processors reduced to:  21 ShMem   1 Linda.
 NMat=     1 NSing=     0 JSym2X= 2.
 CoulSu:  requested number of processors reduced to:  21 ShMem   1 Linda.
 NMat=     1 NSing=     0 JSym2X= 2.
 CoulSu:  requested number of processors reduced to:  21 ShMem   1 Linda.
 NMat=     1 NSing=     0 JSym2X= 2.
 CoulSu:  requested number of processors reduced to:  21 ShMem   1 Linda.
 NMat=     1 NSing=     0 JSym2X= 2.
 CoulSu:  requested number of processors reduced to:  21 ShMem   1 Linda.
 NMat=     1 NSing=     0 JSym2X= 2.
 CoulSu:  requested number of processors reduced to:  21 ShMem   1 Linda.
 NMat=     1 NSing=     0 JSym2X= 2.
 CoulSu:  requested number of processors reduced to:  21 ShMem   1 Linda.
 Root      1 not converged, maximum delta is    0.145566177635844
 Excitation Energies [eV] at current iteration:
 Root      1 :     7.206362936998918   Change is   -0.586038862999472
 Root      2 :     7.936259616081283   Change is   -0.183467937537492
 Root      3 :     8.923926623469283   Change is   -0.427929693254407
 Root      4 :     9.246057420971603   Change is   -0.791022588417058
 Root      5 :     9.254823013892556   Change is   -0.251892256616240
 Root      6 :     9.815526291421913   Change is   -0.358061694384902
 Root      7 :     9.921630895257428   Change is   -0.152979646498510
 Root      8 :     9.966271464943404   Change is   -0.318406071680840
 Root      9 :    10.108870700511210   Change is   -0.083574586216798
 Root     10 :    10.713069078226840   Change is   -0.546169568156334
 Root     11 :    10.952020855498720   Change is   -0.523463068294298
 Root     12 :    11.056140579960510   Change is   -0.473700858129631
 Root     13 :    11.362806408534760   Change is   -0.288343704256193
 Root     14 :    11.435463189729940   Change is   -0.225551908293742
 Root     15 :    11.777908218511470   Change is   -0.239438793238225
 Root     16 :    11.808453244824110   Change is   -0.300219870226487
 Root     17 :    12.002963041382540   Change is   -0.198080376807307
 Root     18 :    12.096761892390110   Change is   -0.170744214626753
 Root     19 :    12.124170750000690   Change is   -0.117037932903720
 Root     20 :    12.459544539652330   Change is   -0.693032890586083
 Root     21 :    12.520377492688450   Change is   -0.494904956831808
 Root     22 :    12.946914261647900   Change is   -0.253765994504422
 Root     23 :    12.957516963263230   Change is   -0.221294850359489
 Root     24 :    13.134741190368690   Change is   -0.263020064917904
 Iteration     3 Dimension    54 NMult    48 NNew      6
 Estimated number of processors is:   20
 CISAX will form     1 AO SS matrices at one time.
 NMat=     1 NSing=     1 JSym2X= 2.
 CoulSu:  requested number of processors reduced to:  21 ShMem   1 Linda.
 NMat=     1 NSing=     1 JSym2X= 2.
 CoulSu:  requested number of processors reduced to:  21 ShMem   1 Linda.
 NMat=     1 NSing=     1 JSym2X= 2.
 CoulSu:  requested number of processors reduced to:  21 ShMem   1 Linda.
 NMat=     1 NSing=     0 JSym2X= 2.
 CoulSu:  requested number of processors reduced to:  21 ShMem   1 Linda.
 NMat=     1 NSing=     0 JSym2X= 2.
 CoulSu:  requested number of processors reduced to:  21 ShMem   1 Linda.
 NMat=     1 NSing=     0 JSym2X= 2.
 CoulSu:  requested number of processors reduced to:  21 ShMem   1 Linda.
 Root      1 not converged, maximum delta is    0.011780839031095
 Excitation Energies [eV] at current iteration:
 Root      1 :     7.193303492396192   Change is   -0.013059444602726
 Root      2 :     7.925433982749103   Change is   -0.010825633332180
 Root      3 :     8.906079507129553   Change is   -0.017847116339730
 Root      4 :     9.145143536953503   Change is   -0.100913884018100
 Root      5 :     9.249805119560522   Change is   -0.005017894332035
 Root      6 :     9.951537736701875   Change is   -0.014733728241528
 Iteration     4 Dimension    60 NMult    54 NNew      6
 Estimated number of processors is:   20
 CISAX will form     1 AO SS matrices at one time.
 NMat=     1 NSing=     1 JSym2X= 2.
 CoulSu:  requested number of processors reduced to:  21 ShMem   1 Linda.
 NMat=     1 NSing=     1 JSym2X= 2.
 CoulSu:  requested number of processors reduced to:  21 ShMem   1 Linda.
 NMat=     1 NSing=     1 JSym2X= 2.
 CoulSu:  requested number of processors reduced to:  21 ShMem   1 Linda.
 NMat=     1 NSing=     0 JSym2X= 2.
 CoulSu:  requested number of processors reduced to:  21 ShMem   1 Linda.
 NMat=     1 NSing=     0 JSym2X= 2.
 CoulSu:  requested number of processors reduced to:  21 ShMem   1 Linda.
 NMat=     1 NSing=     0 JSym2X= 2.
 CoulSu:  requested number of processors reduced to:  21 ShMem   1 Linda.
 Root      1 has converged.
 Excitation Energies [eV] at current iteration:
 Root      1 :     7.193176535132242   Change is   -0.000126957263950
 Root      2 :     7.925346511774617   Change is   -0.000087470974487
 Root      3 :     8.905740088335600   Change is   -0.000339418793953
 Root      4 :     9.127366119254436   Change is   -0.017777417699067
 Root      5 :     9.249728398490809   Change is   -0.000076721069713
 Root      6 :     9.949934202693079   Change is   -0.001603534008796
 Convergence achieved on expansion vectors.
 ***********************************************************************
 Stability analysis using <AA,BB:AA,BB> singles matrix:
 ***********************************************************************
 1PDM for each excited state written to RWF  633
 Ground to excited state transition densities written to RWF  633

 Eigenvectors of the stability matrix:
 
 Eigenvector   1:      Triplet-A"   Eigenvalue= 0.2643444  <S**2>=2.000
       5 ->  6         0.65383
       5 ->  8         0.10710
       5 -> 13        -0.15135
       5 -> 16        -0.15454
 The wavefunction is stable under the perturbations considered.
 Leave Link  914 at Sun Apr 18 02:49:35 2021, MaxMem=   104857600 cpu:            4937.3 elap:             123.2
 (Enter /s/ls4/users/knvvv/bin/g16sse/l508.exe)
 The wavefunction is already stable.
 Leave Link  508 at Sun Apr 18 02:49:35 2021, MaxMem=   104857600 cpu:               2.2 elap:               0.1
 (Enter /s/ls4/users/knvvv/bin/g16sse/l601.exe)
 Copying SCF densities to generalized density rwf, IOpCl= 0 IROHF=0.

 **********************************************************************

            Population analysis using the SCF density.

 **********************************************************************

 Orbital symmetries:
       Occupied  (A') (A') (A') (A') (A")
       Virtual   (A') (A') (A') (A") (A') (A') (A") (A') (A") (A')
                 (A') (A') (A') (A') (A") (A') (A") (A') (A") (A')
                 (A') (A') (A") (A") (A') (A') (A') (A') (A') (A')
                 (A') (A") (A") (A') (A') (A") (A') (A") (A') (A')
                 (A') (A") (A') (A") (A') (A") (A') (A') (A") (A')
                 (A") (A') (A') (A') (A') (A') (A") (A') (A") (A")
                 (A') (A') (A') (A") (A') (A") (A') (A') (A") (A')
                 (A') (A") (A') (A") (A') (A") (A') (A') (A") (A')
                 (A') (A") (A") (A') (A') (A') (A") (A') (A") (A')
                 (A") (A') (A") (A') (A') (A') (A") (A') (A") (A')
                 (A') (A') (A") (A') (A") (A') (A') (A") (A') (A")
                 (A") (A') (A") (A') (A') (A") (A') (A') (A') (A')
                 (A") (A") (A') (A') (A') (A') (A')
 The electronic state is 1-A'.
 Alpha  occ. eigenvalues --  -19.62945  -1.13633  -0.60926  -0.47790  -0.40354
 Alpha virt. eigenvalues --    0.01035   0.04194   0.06377   0.06391   0.13472
 Alpha virt. eigenvalues --    0.14831   0.17186   0.18754   0.19462   0.23239
 Alpha virt. eigenvalues --    0.25591   0.27690   0.35470   0.36775   0.40112
 Alpha virt. eigenvalues --    0.44847   0.46087   0.46101   0.51350   0.53139
 Alpha virt. eigenvalues --    0.54556   0.65021   0.77215   0.81436   0.83594
 Alpha virt. eigenvalues --    0.94889   1.00374   1.05602   1.11019   1.14730
 Alpha virt. eigenvalues --    1.33120   1.38610   1.44138   1.46155   1.50864
 Alpha virt. eigenvalues --    1.60084   1.63039   1.88803   1.94684   2.01292
 Alpha virt. eigenvalues --    2.03895   2.25298   2.26779   2.44046   2.44417
 Alpha virt. eigenvalues --    2.45911   2.55638   2.60745   2.65425   2.68298
 Alpha virt. eigenvalues --    2.69587   2.89214   3.11289   3.22452   3.27029
 Alpha virt. eigenvalues --    3.40616   3.69343   3.88042   3.90222   3.92987
 Alpha virt. eigenvalues --    4.06428   4.16893   4.24641   4.25277   4.39920
 Alpha virt. eigenvalues --    4.56208   4.78783   4.79478   5.29721   5.30225
 Alpha virt. eigenvalues --    5.41888   5.60351   5.82861   5.85729   5.95098
 Alpha virt. eigenvalues --    6.32085   6.40977   6.65611   6.92282   7.02627
 Alpha virt. eigenvalues --    7.10543   7.15541   7.24460   7.25620   7.30850
 Alpha virt. eigenvalues --    7.31535   7.52479   7.54188   7.65051   7.70922
 Alpha virt. eigenvalues --    7.71600   7.71656   7.82448   7.96169   8.17483
 Alpha virt. eigenvalues --    8.36144   8.44943   8.57893   8.62202   8.85927
 Alpha virt. eigenvalues --    8.95581   9.71129   9.71164  10.08881  10.14671
 Alpha virt. eigenvalues --   10.52256  10.57959  10.77944  10.91719  10.98083
 Alpha virt. eigenvalues --   11.14412  11.30580  11.56230  11.58049  11.65906
 Alpha virt. eigenvalues --   11.69493  12.11718  12.66770  13.26420  13.43621
 Alpha virt. eigenvalues --   13.46331  13.85377  14.22516  16.43856  16.44178
 Alpha virt. eigenvalues --   48.33552 251.40862
          Condensed to atoms (all electrons):
               1          2          3
     1  H    0.384498   0.276786  -0.018131
     2  O    0.276786   8.159989   0.276826
     3  H   -0.018131   0.276826   0.384552
 Mulliken charges:
               1
     1  H    0.356848
     2  O   -0.713601
     3  H    0.356753
 Sum of Mulliken charges =  -0.00000
 Mulliken charges with hydrogens summed into heavy atoms:
               1
     2  O   -0.000000
 Electronic spatial extent (au):  <R**2>=             19.8450
 Charge=             -0.0000 electrons
 Dipole moment (field-independent basis, Debye):
    X=              0.0001    Y=             -1.9056    Z=             -0.0000  Tot=              1.9056
 Quadrupole moment (field-independent basis, Debye-Ang):
   XX=             -4.4111   YY=             -6.3717   ZZ=             -7.7036
   XY=              0.0007   XZ=              0.0000   YZ=             -0.0000
 Traceless Quadrupole moment (field-independent basis, Debye-Ang):
   XX=              1.7510   YY=             -0.2096   ZZ=             -1.5414
   XY=              0.0007   XZ=              0.0000   YZ=             -0.0000
 Octapole moment (field-independent basis, Debye-Ang**2):
  XXX=              0.0004  YYY=             -1.0321  ZZZ=             -0.0000  XYY=             -0.0005
  XXY=             -1.3422  XXZ=             -0.0000  XZZ=              0.0001  YZZ=             -0.2204
  YYZ=             -0.0000  XYZ=              0.0000
 Hexadecapole moment (field-independent basis, Debye-Ang**3):
 XXXX=             -6.4260 YYYY=             -7.6997 ZZZZ=             -7.2861 XXXY=             -0.0000
 XXXZ=              0.0000 YYYX=              0.0000 YYYZ=             -0.0000 ZZZX=              0.0000
 ZZZY=             -0.0000 XXYY=             -2.0217 XXZZ=             -2.6109 YYZZ=             -2.5491
 XXYZ=             -0.0000 YYXZ=              0.0000 ZZXY=             -0.0002
 N-N= 9.156881450230D+00 E-N=-1.991532207315D+02  KE= 7.618351564810D+01
 PrsmSu:  requested number of processors reduced to:  21 ShMem   1 Linda.
 No NMR shielding tensors so no spin-rotation constants.
 Leave Link  601 at Sun Apr 18 02:49:37 2021, MaxMem=   104857600 cpu:              50.1 elap:               1.2
 (Enter /s/ls4/users/knvvv/bin/g16sse/l9999.exe)

 Test job not archived.
 1\1\GINC-N305\Stability\RM062X\Gen\H2O1\KNVVV\18-Apr-2021\0\\#P M062X/
 GEN Integral=UltraFineGrid SCF=NoSymm Stable=(RExt, Opt) IOp(1/33=1)\\
 Database calculations.\\0,1\H,0,0.674641,1.291104,3.565275\O,0,0.10148
 9,1.94315,3.977745\H,0,-0.408562,2.303216,3.246641\\Version=ES64L-G16R
 evA.03\State=1-A'\HF=-76.4367636\RMSD=2.511e-09\Dipole=0.0400553,-0.18
 52316,-0.7253616\Quadrupole=0.1059915,0.0050522,-0.1110437,-1.1802878,
 0.3161946,-0.1065688\PG=CS [SG(H2O1)]\\@


 Fatherhood is pretending the present you love most is soap-on-a-rope.
 -- Bill Cosby
 Job cpu time:       0 days  1 hours 30 minutes 55.8 seconds.
 Elapsed time:       0 days  0 hours  2 minutes 15.5 seconds.
 File lengths (MBytes):  RWF=     56 Int=      0 D2E=      0 Chk=      3 Scr=      1
 Normal termination of Gaussian 16 at Sun Apr 18 02:49:37 2021.
