 Entering Gaussian System, Link 0=/s/ls4/users/knvvv/bin/g16sse/g16
 Input=data/database/M062X--def2-QZVP--BSR36_c2h6.gjf
 Output=data/database/M062X--def2-QZVP--BSR36_c2h6.log
 Initial command:
 /s/ls4/users/knvvv/bin/g16sse/l1.exe "/s/ls4/users/knvvv/bin/scratch/Gau-1469.inp" -scrdir="/s/ls4/users/knvvv/bin/scratch/"
 Entering Link 1 = /s/ls4/users/knvvv/bin/g16sse/l1.exe PID=      1470.
  
 Copyright (c) 1988,1990,1992,1993,1995,1998,2003,2009,2016,
            Gaussian, Inc.  All Rights Reserved.
  
 This is part of the Gaussian(R) 16 program.  It is based on
 the Gaussian(R) 09 system (copyright 2009, Gaussian, Inc.),
 the Gaussian(R) 03 system (copyright 2003, Gaussian, Inc.),
 the Gaussian(R) 98 system (copyright 1998, Gaussian, Inc.),
 the Gaussian(R) 94 system (copyright 1995, Gaussian, Inc.),
 the Gaussian 92(TM) system (copyright 1992, Gaussian, Inc.),
 the Gaussian 90(TM) system (copyright 1990, Gaussian, Inc.),
 the Gaussian 88(TM) system (copyright 1988, Gaussian, Inc.),
 the Gaussian 86(TM) system (copyright 1986, Carnegie Mellon
 University), and the Gaussian 82(TM) system (copyright 1983,
 Carnegie Mellon University). Gaussian is a federally registered
 trademark of Gaussian, Inc.
  
 This software contains proprietary and confidential information,
 including trade secrets, belonging to Gaussian, Inc.
  
 This software is provided under written license and may be
 used, copied, transmitted, or stored only in accord with that
 written license.
  
 The following legend is applicable only to US Government
 contracts under FAR:
  
                    RESTRICTED RIGHTS LEGEND
  
 Use, reproduction and disclosure by the US Government is
 subject to restrictions as set forth in subparagraphs (a)
 and (c) of the Commercial Computer Software - Restricted
 Rights clause in FAR 52.227-19.
  
 Gaussian, Inc.
 340 Quinnipiac St., Bldg. 40, Wallingford CT 06492
  
  
 ---------------------------------------------------------------
 Warning -- This program may not be used in any manner that
 competes with the business of Gaussian, Inc. or will provide
 assistance to any competitor of Gaussian, Inc.  The licensee
 of this program is prohibited from giving any competitor of
 Gaussian, Inc. access to this program.  By using this program,
 the user acknowledges that Gaussian, Inc. is engaged in the
 business of creating and licensing software in the field of
 computational chemistry and represents and warrants to the
 licensee that it is not a competitor of Gaussian, Inc. and that
 it will not use this program in any manner prohibited above.
 ---------------------------------------------------------------
  

 Cite this work as:
 Gaussian 16, Revision A.03,
 M. J. Frisch, G. W. Trucks, H. B. Schlegel, G. E. Scuseria, 
 M. A. Robb, J. R. Cheeseman, G. Scalmani, V. Barone, 
 G. A. Petersson, H. Nakatsuji, X. Li, M. Caricato, A. V. Marenich, 
 J. Bloino, B. G. Janesko, R. Gomperts, B. Mennucci, H. P. Hratchian, 
 J. V. Ortiz, A. F. Izmaylov, J. L. Sonnenberg, D. Williams-Young, 
 F. Ding, F. Lipparini, F. Egidi, J. Goings, B. Peng, A. Petrone, 
 T. Henderson, D. Ranasinghe, V. G. Zakrzewski, J. Gao, N. Rega, 
 G. Zheng, W. Liang, M. Hada, M. Ehara, K. Toyota, R. Fukuda, 
 J. Hasegawa, M. Ishida, T. Nakajima, Y. Honda, O. Kitao, H. Nakai, 
 T. Vreven, K. Throssell, J. A. Montgomery, Jr., J. E. Peralta, 
 F. Ogliaro, M. J. Bearpark, J. J. Heyd, E. N. Brothers, K. N. Kudin, 
 V. N. Staroverov, T. A. Keith, R. Kobayashi, J. Normand, 
 K. Raghavachari, A. P. Rendell, J. C. Burant, S. S. Iyengar, 
 J. Tomasi, M. Cossi, J. M. Millam, M. Klene, C. Adamo, R. Cammi, 
 J. W. Ochterski, R. L. Martin, K. Morokuma, O. Farkas, 
 J. B. Foresman, and D. J. Fox, Gaussian, Inc., Wallingford CT, 2016.
 
 ******************************************
 Gaussian 16:  ES64L-G16RevA.03 25-Dec-2016
                16-Apr-2021 
 ******************************************
 %RWF=temp4_65694,70GB
 %nprocshared=48
 Will use up to   48 processors via shared memory.
 Default route: MaxDisk=80GB
 ----------------------------------------------------------------------
 #P M062X/Def2QZVP Integral=UltraFineGrid SCF=NoSymm Stable=(RExt, Opt)
  IOp(1/33=1)
 ----------------------------------------------------------------------
 1/33=1,38=1,172=1/1;
 2/12=2,17=6,18=5,40=1/2;
 3/5=45,7=101,11=2,25=1,30=1,74=-55,75=-5/1,2,3;
 4/9=2/1;
 5/5=2,38=5/2;
 6/7=2,8=2,9=2,10=2,28=1/1;
 8/6=1,10=90,11=11/1;
 9/8=-3,42=1,46=1/14;
 5/5=2,8=3,17=40,38=5/8(-2);
 6/7=2,8=2,9=2,10=2,28=1/1;
 99/5=1,9=1/99;
 Leave Link    1 at Fri Apr 16 23:07:02 2021, MaxMem=           0 cpu:               8.0 elap:               0.2
 (Enter /s/ls4/users/knvvv/bin/g16sse/l101.exe)
 ONIOM data not found on unit 2.
 ----------------------
 Database calculations.
 ----------------------
 TstMul:  ICh=     0
 TstMul:  Mul=     1
 TstMul:  ICh=     0
 TstMul:  Mul=     1
 Symbolic Z-matrix:
 Charge =  0 Multiplicity = 1
 C                     0.        0.       -0.76169 
 C                     0.        0.        0.76169 
 H                    -0.8786    0.50726  -1.15577 
 H                     0.       -1.01452  -1.15577 
 H                     0.8786    0.50726  -1.15577 
 H                    -0.8786   -0.50726   1.15577 
 H                     0.        1.01452   1.15577 
 H                     0.8786   -0.50726   1.15577 
 
 RdStrC is calling ZToCFu for IStruc=1 NZ=     8.
 PrtBox:  NBox=     1 Levels=  1 BoxLen=    8.00 SMaxX=        4.37
          Shift=            1.660314            1.917165            2.184079
 Box      1 Number                   0 centers from      1 to      8:
 After GenITR:
 ITRead=  0  0  0  0  0  0  0  0
 MicOpt= -1 -1 -1 -1 -1 -1 -1 -1
 ITRead=  0  0  0  0  0  0  0  0
 MicOpt= -1 -1 -1 -1 -1 -1 -1 -1
 NAtoms=      8 NQM=        8 NQMF=       0 NMMI=      0 NMMIF=      0
                NMic=       0 NMicF=      0.
                    Isotopes and Nuclear Properties:
 (Nuclear quadrupole moments (NQMom) in fm**2, nuclear magnetic moments (NMagM)
  in nuclear magnetons)

  Atom         1           2           3           4           5           6           7           8
 IAtWgt=          12          12           1           1           1           1           1           1
 AtmWgt=  12.0000000  12.0000000   1.0078250   1.0078250   1.0078250   1.0078250   1.0078250   1.0078250
 NucSpn=           0           0           1           1           1           1           1           1
 AtZEff=  -0.0000000  -0.0000000  -0.0000000  -0.0000000  -0.0000000  -0.0000000  -0.0000000  -0.0000000
 NQMom=    0.0000000   0.0000000   0.0000000   0.0000000   0.0000000   0.0000000   0.0000000   0.0000000
 NMagM=    0.0000000   0.0000000   2.7928460   2.7928460   2.7928460   2.7928460   2.7928460   2.7928460
 AtZNuc=   6.0000000   6.0000000   1.0000000   1.0000000   1.0000000   1.0000000   1.0000000   1.0000000
 No MM parameters found.
 Leave Link  101 at Fri Apr 16 23:07:02 2021, MaxMem=   104857600 cpu:               6.8 elap:               0.2
 (Enter /s/ls4/users/knvvv/bin/g16sse/l202.exe)
                          Input orientation:                          
 ---------------------------------------------------------------------
 Center     Atomic      Atomic             Coordinates (Angstroms)
 Number     Number       Type             X           Y           Z
 ---------------------------------------------------------------------
      1          6           0        0.000000    0.000000   -0.761689
      2          6           0        0.000000    0.000000    0.761689
      3          1           0       -0.878600    0.507260   -1.155765
      4          1           0        0.000000   -1.014520   -1.155765
      5          1           0        0.878600    0.507260   -1.155765
      6          1           0       -0.878600   -0.507260    1.155765
      7          1           0        0.000000    1.014520    1.155765
      8          1           0        0.878600   -0.507260    1.155765
 ---------------------------------------------------------------------
                    Distance matrix (angstroms):
                    1          2          3          4          5
     1  C    0.000000
     2  C    1.523379   0.000000
     3  H    1.088369   2.169305   0.000000
     4  H    1.088369   2.169305   1.757201   0.000000
     5  H    1.088369   2.169305   1.757201   1.757201   0.000000
     6  H    2.169305   1.088369   2.524366   2.524366   3.075740
     7  H    2.169305   1.088369   2.524366   3.075740   2.524366
     8  H    2.169305   1.088369   3.075740   2.524366   2.524366
                    6          7          8
     6  H    0.000000
     7  H    1.757201   0.000000
     8  H    1.757201   1.757201   0.000000
 Stoichiometry    C2H6
 Framework group  D3D[C3(C.C),3SGD(H2)]
 Deg. of freedom     3
 Full point group                 D3D     NOp  12
 Largest Abelian subgroup         C2H     NOp   4
 Largest concise Abelian subgroup C2H     NOp   4
                         Standard orientation:                         
 ---------------------------------------------------------------------
 Center     Atomic      Atomic             Coordinates (Angstroms)
 Number     Number       Type             X           Y           Z
 ---------------------------------------------------------------------
      1          6           0        0.000000    0.000000    0.761689
      2          6           0       -0.000000   -0.000000   -0.761689
      3          1           0        0.000000    1.014520    1.155765
      4          1           0        0.878600   -0.507260    1.155765
      5          1           0       -0.878600   -0.507260    1.155765
      6          1           0        0.878600    0.507260   -1.155765
      7          1           0       -0.878600    0.507260   -1.155765
      8          1           0       -0.000000   -1.014520   -1.155765
 ---------------------------------------------------------------------
 Rotational constants (GHZ):          81.2006215          20.1238079          20.1238079
 Leave Link  202 at Fri Apr 16 23:07:02 2021, MaxMem=   104857600 cpu:              10.8 elap:               0.3
 (Enter /s/ls4/users/knvvv/bin/g16sse/l301.exe)
 Standard basis: def2QZVP (5D, 7F)
 Ernie: Thresh=  0.10000D-02 Tol=  0.10000D-05 Strict=F.
 There are   107 symmetry adapted cartesian basis functions of AG  symmetry.
 There are    70 symmetry adapted cartesian basis functions of BG  symmetry.
 There are    70 symmetry adapted cartesian basis functions of AU  symmetry.
 There are   107 symmetry adapted cartesian basis functions of BU  symmetry.
 There are    87 symmetry adapted basis functions of AG  symmetry.
 There are    60 symmetry adapted basis functions of BG  symmetry.
 There are    60 symmetry adapted basis functions of AU  symmetry.
 There are    87 symmetry adapted basis functions of BU  symmetry.
   294 basis functions,   412 primitive gaussians,   354 cartesian basis functions
     9 alpha electrons        9 beta electrons
       nuclear repulsion energy        42.3715407369 Hartrees.
 IExCor= 4336 DFT=T Ex+Corr=M062X ExCW=0 ScaHFX=  0.540000
 ScaDFX=  1.000000  1.000000  1.000000  1.000000 ScalE2=  1.000000  1.000000
 IRadAn=      5 IRanWt=     -1 IRanGd=            0 ICorTp=0 IEmpDi=  4
 NAtoms=    8 NActive=    8 NUniq=    2 SFac= 4.00D+00 NAtFMM=   60 NAOKFM=F Big=F
 Integral buffers will be    131072 words long.
 Raffenetti 2 integral format.
 Two-electron integral symmetry is turned on.
 Leave Link  301 at Fri Apr 16 23:07:03 2021, MaxMem=   104857600 cpu:               5.7 elap:               0.1
 (Enter /s/ls4/users/knvvv/bin/g16sse/l302.exe)
 NPDir=0 NMtPBC=     1 NCelOv=     1 NCel=       1 NClECP=     1 NCelD=      1
         NCelK=      1 NCelE2=     1 NClLst=     1 CellRange=     0.0.
 One-electron integrals computed using PRISM.
 One-electron integral symmetry used in STVInt
 PrsmSu:  requested number of processors reduced to:   4 ShMem   1 Linda.
 PrsmSu:  requested number of processors reduced to:  21 ShMem   1 Linda.
  12 Symmetry operations used in ECPInt.
 ECPInt:  NShTT=    4465 NPrTT=    9430 LenC2=    4465 LenP2D=    8736.
 LDataN:  DoStor=T MaxTD1= 8 Len=  415
 Number of processors reduced to  24 by ecpmxn.
 NBasis=   294 RedAO= T EigKep=  1.01D-04  NBF=    87    60    60    87
 NBsUse=   294 1.00D-06 EigRej= -1.00D+00 NBFU=    87    60    60    87
 Precomputing XC quadrature grid using
 IXCGrd= 4 IRadAn=           5 IRanWt=          -1 IRanGd=           0 AccXCQ= 0.00D+00.
 Generated NRdTot=       0 NPtTot=           0 NUsed=           0 NTot=          32
 NSgBfM=   354   354   354   354   354 MxSgAt=     8 MxSgA2=     8.
 Leave Link  302 at Fri Apr 16 23:07:43 2021, MaxMem=   104857600 cpu:            1874.6 elap:              40.0
 (Enter /s/ls4/users/knvvv/bin/g16sse/l303.exe)
 DipDrv:  MaxL=1.
 Leave Link  303 at Fri Apr 16 23:07:43 2021, MaxMem=   104857600 cpu:              14.9 elap:               0.3
 (Enter /s/ls4/users/knvvv/bin/g16sse/l401.exe)
 SCF N**3 symmetry information disabled.
 ExpMin= 7.60D-02 ExpMax= 6.70D+04 ExpMxC= 6.47D+02 IAcc=3 IRadAn=         5 AccDes= 0.00D+00
 Harris functional with IExCor= 1009 and IRadAn=       5 diagonalized for initial guess.
 HarFok:  IExCor= 1009 AccDes= 0.00D+00 IRadAn=         5 IDoV= 1 UseB2=F ITyADJ=14
 ICtDFT=  3500011 ScaDFX=  1.000000  1.000000  1.000000  1.000000
 FoFCou: FMM=F IPFlag=           0 FMFlag=      100000 FMFlg1=           0
         NFxFlg=           0 DoJE=T BraDBF=F KetDBF=T FulRan=T
         wScrn=  0.000000 ICntrl=       500 IOpCl=  0 I1Cent=   200000004 NGrid=           0
         NMat0=    1 NMatS0=      1 NMatT0=    0 NMatD0=    1 NMtDS0=    0 NMtDT0=    0
 Petite list used in FoFCou.
 CoulSu:  requested number of processors reduced to:  20 ShMem   1 Linda.
 CoulSu:  requested number of processors reduced to:  20 ShMem   1 Linda.
 CoulSu:  requested number of processors reduced to:  21 ShMem   1 Linda.
 CoulSu:  requested number of processors reduced to:  21 ShMem   1 Linda.
 Harris En= -79.8505008485827    
 JPrj=0 DoOrth=F DoCkMO=F.
 Initial guess orbital symmetries:
       Occupied  (A1G) (A2U) (A1G) (A2U) (EU) (EU) (A1G) (EG) (EG)
       Virtual   (A1G) (A2U) (EU) (EU) (EG) (EG) (A2U) (A1G) (EG)
                 (EG) (EU) (EU) (A2U) (EU) (EU) (EG) (EG) (A1G)
                 (A2U) (EU) (EU) (A1G) (A2U) (EG) (EG) (A1G) (A1U)
                 (EU) (EU) (EG) (EG) (A2G) (A2U) (EG) (EG) (EU)
                 (EU) (A1G) (A2U) (EG) (EG) (A2U) (EU) (EU) (A1G)
                 (EU) (EU) (EG) (EG) (A1G) (A2U) (EU) (EU) (EG)
                 (EG) (A1G) (A2U) (EG) (EG) (EU) (EU) (A1G) (A1U)
                 (EG) (EG) (EU) (EU) (A2G) (EG) (EG) (EU) (EU)
                 (EU) (EU) (A2U) (EG) (EG) (A1U) (A2U) (A1G) (A2U)
                 (EU) (EU) (A1G) (EG) (EG) (A2G) (EU) (EU) (A2U)
                 (EG) (EG) (EG) (EG) (EU) (EU) (A1G) (A2U) (EU)
                 (EU) (A1G) (EG) (EG) (A1U) (EG) (EG) (A2G) (EG)
                 (EG) (EU) (EU) (A1G) (A2U) (A1U) (A1G) (EU) (EU)
                 (A2U) (EG) (EG) (A1G) (EU) (EU) (A2U) (A1G) (EG)
                 (EG) (EU) (EU) (A1G) (A2U) (A2G) (EU) (EU) (EG)
                 (EG) (EG) (EG) (EU) (EU) (A2U) (EG) (EG) (EU)
                 (EU) (A1U) (EG) (EG) (A2G) (A1G) (EU) (EU) (A2U)
                 (EU) (EU) (EG) (EG) (EU) (EU) (EG) (EG) (A1G)
                 (A2U) (A2G) (A1U) (A1U) (EG) (EG) (A2U) (A1G)
                 (A2G) (EU) (EU) (EG) (EG) (A2U) (EU) (EU) (EG)
                 (EG) (A1G) (EU) (EU) (A1G) (EU) (EU) (EG) (EG)
                 (EU) (EU) (A1U) (A1G) (A2U) (A2U) (EG) (EG) (A1G)
                 (A2G) (EU) (EU) (EG) (EG) (A1G) (A1U) (EU) (EU)
                 (A2U) (EG) (EG) (EG) (EG) (A2U) (A1G) (EG) (EG)
                 (EU) (EU) (EU) (EU) (A2G) (EG) (EG) (A2U) (A1G)
                 (EU) (EU) (EG) (EG) (EU) (EU) (EU) (EU) (A1U)
                 (A2U) (EG) (EG) (A1G) (A2G) (A2U) (EU) (EU) (EG)
                 (EG) (A1G) (A2U) (EG) (EG) (A1U) (EG) (EG) (EU)
                 (EU) (A1G) (EU) (EU) (A2G) (A2U) (EG) (EG) (EU)
                 (EU) (A2U) (A1G) (EG) (EG) (EU) (EU) (A2U) (A1G)
                 (EG) (EG) (A1U) (EU) (EU) (A2G) (EU) (EU) (EG)
                 (EG) (A2U) (A1G) (A1G) (A2U) (A1G) (A2U)
 The electronic state of the initial guess is 1-A1G.
 Leave Link  401 at Fri Apr 16 23:08:03 2021, MaxMem=   104857600 cpu:             937.6 elap:              20.2
 (Enter /s/ls4/users/knvvv/bin/g16sse/l502.exe)
 Integral symmetry usage will be decided dynamically.
 Closed shell SCF:
 Using DIIS extrapolation, IDIIS=  1040.
 NGot=   104857600 LenX=   104584066 LenY=   104458309
 Requested convergence on RMS density matrix=1.00D-08 within 128 cycles.
 Requested convergence on MAX density matrix=1.00D-06.
 Requested convergence on             energy=1.00D-06.
 No special actions if energy rises.
 Fock matrices will be formed incrementally for  20 cycles.
 Integral accuracy reduced to 1.0D-05 until final iterations.

 Cycle   1  Pass 0  IDiag  1:
 FoFJK:  IHMeth= 1 ICntrl=       0 DoSepK=F KAlg= 0 I1Cent=           0 FoldK=F
 IRaf= 990000000 NMat=       1 IRICut=       1 DoRegI=T DoRafI=F ISym2E= 1 IDoP0=0 IntGTp=1.
 FoFCou: FMM=F IPFlag=           0 FMFlag=      100000 FMFlg1=           0
         NFxFlg=           0 DoJE=F BraDBF=F KetDBF=F FulRan=T
         wScrn=  0.000000 ICntrl=         0 IOpCl=  0 I1Cent=           0 NGrid=           0
         NMat0=    1 NMatS0=      1 NMatT0=    0 NMatD0=    1 NMtDS0=    0 NMtDT0=    0
 Petite list used in FoFCou.
 CoulSu:  requested number of processors reduced to:  21 ShMem   1 Linda.
 E= -79.6742483827144    
 DIIS: error= 4.00D-02 at cycle   1 NSaved=   1.
 NSaved= 1 IEnMin= 1 EnMin= -79.6742483827144     IErMin= 1 ErrMin= 4.00D-02
 ErrMax= 4.00D-02  0.00D+00 EMaxC= 1.00D-01 BMatC= 1.76D-01 BMatP= 1.76D-01
 IDIUse=3 WtCom= 6.00D-01 WtEn= 4.00D-01
 Coeff-Com:  0.100D+01
 Coeff-En:   0.100D+01
 Coeff:      0.100D+01
 Gap=     0.378 Goal=   None    Shift=    0.000
 GapD=    0.378 DampG=1.000 DampE=0.500 DampFc=0.5000 IDamp=-1.
 Damping current iteration by 5.00D-01
 RMSDP=1.15D-03 MaxDP=3.82D-02              OVMax= 1.66D-01

 Cycle   2  Pass 0  IDiag  1:
 RMSU=  5.52D-04    CP:  9.57D-01
 CoulSu:  requested number of processors reduced to:  21 ShMem   1 Linda.
 E= -79.7463111235948     Delta-E=       -0.072062740880 Rises=F Damp=T
 DIIS: error= 1.53D-02 at cycle   2 NSaved=   2.
 NSaved= 2 IEnMin= 2 EnMin= -79.7463111235948     IErMin= 2 ErrMin= 1.53D-02
 ErrMax= 1.53D-02  0.00D+00 EMaxC= 1.00D-01 BMatC= 1.40D-02 BMatP= 1.76D-01
 IDIUse=3 WtCom= 8.47D-01 WtEn= 1.53D-01
 Coeff-Com: -0.124D+00 0.112D+01
 Coeff-En:   0.000D+00 0.100D+01
 Coeff:     -0.105D+00 0.111D+01
 Gap=     0.487 Goal=   None    Shift=    0.000
 RMSDP=5.51D-04 MaxDP=5.53D-02 DE=-7.21D-02 OVMax= 9.09D-02

 Cycle   3  Pass 0  IDiag  1:
 RMSU=  5.34D-04    CP:  9.83D-01  1.17D+00
 CoulSu:  requested number of processors reduced to:  21 ShMem   1 Linda.
 E= -79.8140222939392     Delta-E=       -0.067711170344 Rises=F Damp=F
 DIIS: error= 3.12D-03 at cycle   3 NSaved=   3.
 NSaved= 3 IEnMin= 3 EnMin= -79.8140222939392     IErMin= 3 ErrMin= 3.12D-03
 ErrMax= 3.12D-03  0.00D+00 EMaxC= 1.00D-01 BMatC= 7.15D-04 BMatP= 1.40D-02
 IDIUse=3 WtCom= 9.69D-01 WtEn= 3.12D-02
 Coeff-Com: -0.589D-01 0.165D+00 0.894D+00
 Coeff-En:   0.000D+00 0.000D+00 0.100D+01
 Coeff:     -0.571D-01 0.159D+00 0.898D+00
 Gap=     0.452 Goal=   None    Shift=    0.000
 RMSDP=7.71D-05 MaxDP=5.88D-03 DE=-6.77D-02 OVMax= 7.94D-03

 Cycle   4  Pass 0  IDiag  1:
 RMSU=  6.48D-05    CP:  9.76D-01  1.22D+00  9.71D-01
 CoulSu:  requested number of processors reduced to:  21 ShMem   1 Linda.
 E= -79.8146704349954     Delta-E=       -0.000648141056 Rises=F Damp=F
 DIIS: error= 8.41D-04 at cycle   4 NSaved=   4.
 NSaved= 4 IEnMin= 4 EnMin= -79.8146704349954     IErMin= 4 ErrMin= 8.41D-04
 ErrMax= 8.41D-04  0.00D+00 EMaxC= 1.00D-01 BMatC= 2.13D-05 BMatP= 7.15D-04
 IDIUse=3 WtCom= 9.92D-01 WtEn= 8.41D-03
 Coeff-Com: -0.329D-02 0.787D-02 0.158D+00 0.838D+00
 Coeff-En:   0.000D+00 0.000D+00 0.000D+00 0.100D+01
 Coeff:     -0.326D-02 0.781D-02 0.156D+00 0.839D+00
 Gap=     0.452 Goal=   None    Shift=    0.000
 RMSDP=9.79D-06 MaxDP=6.23D-04 DE=-6.48D-04 OVMax= 1.74D-03

 Initial convergence to 1.0D-05 achieved.  Increase integral accuracy.
 Cycle   5  Pass 1  IDiag  1:
 CoulSu:  requested number of processors reduced to:  21 ShMem   1 Linda.
 E= -79.8147024503527     Delta-E=       -0.000032015357 Rises=F Damp=F
 DIIS: error= 7.16D-05 at cycle   1 NSaved=   1.
 NSaved= 1 IEnMin= 1 EnMin= -79.8147024503527     IErMin= 1 ErrMin= 7.16D-05
 ErrMax= 7.16D-05  0.00D+00 EMaxC= 1.00D-01 BMatC= 8.43D-07 BMatP= 8.43D-07
 IDIUse=1 WtCom= 1.00D+00 WtEn= 0.00D+00
 Coeff-Com:  0.100D+01
 Coeff:      0.100D+01
 Gap=     0.452 Goal=   None    Shift=    0.000
 RMSDP=9.79D-06 MaxDP=6.23D-04 DE=-3.20D-05 OVMax= 3.17D-04

 Cycle   6  Pass 1  IDiag  1:
 RMSU=  5.73D-06    CP:  1.00D+00
 CoulSu:  requested number of processors reduced to:  21 ShMem   1 Linda.
 E= -79.8147029428700     Delta-E=       -0.000000492517 Rises=F Damp=F
 DIIS: error= 3.17D-05 at cycle   2 NSaved=   2.
 NSaved= 2 IEnMin= 2 EnMin= -79.8147029428700     IErMin= 2 ErrMin= 3.17D-05
 ErrMax= 3.17D-05  0.00D+00 EMaxC= 1.00D-01 BMatC= 6.41D-08 BMatP= 8.43D-07
 IDIUse=1 WtCom= 1.00D+00 WtEn= 0.00D+00
 Coeff-Com:  0.989D-01 0.901D+00
 Coeff:      0.989D-01 0.901D+00
 Gap=     0.452 Goal=   None    Shift=    0.000
 RMSDP=8.29D-07 MaxDP=3.41D-05 DE=-4.93D-07 OVMax= 9.12D-05

 Cycle   7  Pass 1  IDiag  1:
 RMSU=  8.19D-07    CP:  1.00D+00  1.01D+00
 CoulSu:  requested number of processors reduced to:  21 ShMem   1 Linda.
 E= -79.8147029880915     Delta-E=       -0.000000045222 Rises=F Damp=F
 DIIS: error= 1.68D-05 at cycle   3 NSaved=   3.
 NSaved= 3 IEnMin= 3 EnMin= -79.8147029880915     IErMin= 3 ErrMin= 1.68D-05
 ErrMax= 1.68D-05  0.00D+00 EMaxC= 1.00D-01 BMatC= 2.19D-08 BMatP= 6.41D-08
 IDIUse=1 WtCom= 1.00D+00 WtEn= 0.00D+00
 Coeff-Com: -0.317D-01 0.341D+00 0.691D+00
 Coeff:     -0.317D-01 0.341D+00 0.691D+00
 Gap=     0.452 Goal=   None    Shift=    0.000
 RMSDP=3.32D-07 MaxDP=2.02D-05 DE=-4.52D-08 OVMax= 5.20D-05

 Cycle   8  Pass 1  IDiag  1:
 RMSU=  2.67D-07    CP:  1.00D+00  1.03D+00  8.86D-01
 CoulSu:  requested number of processors reduced to:  21 ShMem   1 Linda.
 E= -79.8147030080835     Delta-E=       -0.000000019992 Rises=F Damp=F
 DIIS: error= 3.82D-06 at cycle   4 NSaved=   4.
 NSaved= 4 IEnMin= 4 EnMin= -79.8147030080835     IErMin= 4 ErrMin= 3.82D-06
 ErrMax= 3.82D-06  0.00D+00 EMaxC= 1.00D-01 BMatC= 9.07D-10 BMatP= 2.19D-08
 IDIUse=1 WtCom= 1.00D+00 WtEn= 0.00D+00
 Coeff-Com: -0.177D-01 0.406D-01 0.200D+00 0.777D+00
 Coeff:     -0.177D-01 0.406D-01 0.200D+00 0.777D+00
 Gap=     0.452 Goal=   None    Shift=    0.000
 RMSDP=7.52D-08 MaxDP=4.05D-06 DE=-2.00D-08 OVMax= 1.01D-05

 Cycle   9  Pass 1  IDiag  1:
 RMSU=  4.41D-08    CP:  1.00D+00  1.04D+00  9.53D-01  1.07D+00
 CoulSu:  requested number of processors reduced to:  21 ShMem   1 Linda.
 E= -79.8147030089749     Delta-E=       -0.000000000891 Rises=F Damp=F
 DIIS: error= 7.88D-07 at cycle   5 NSaved=   5.
 NSaved= 5 IEnMin= 5 EnMin= -79.8147030089749     IErMin= 5 ErrMin= 7.88D-07
 ErrMax= 7.88D-07  0.00D+00 EMaxC= 1.00D-01 BMatC= 1.32D-11 BMatP= 9.07D-10
 IDIUse=1 WtCom= 1.00D+00 WtEn= 0.00D+00
 Coeff-Com:  0.208D-02-0.183D-01-0.491D-01-0.315D-01 0.110D+01
 Coeff:      0.208D-02-0.183D-01-0.491D-01-0.315D-01 0.110D+01
 Gap=     0.452 Goal=   None    Shift=    0.000
 RMSDP=2.50D-08 MaxDP=1.59D-06 DE=-8.91D-10 OVMax= 3.38D-06

 Cycle  10  Pass 1  IDiag  1:
 RMSU=  5.33D-09    CP:  1.00D+00  1.04D+00  9.69D-01  1.14D+00  1.10D+00
 CoulSu:  requested number of processors reduced to:  21 ShMem   1 Linda.
 E= -79.8147030089986     Delta-E=       -0.000000000024 Rises=F Damp=F
 DIIS: error= 1.88D-08 at cycle   6 NSaved=   6.
 NSaved= 6 IEnMin= 6 EnMin= -79.8147030089986     IErMin= 6 ErrMin= 1.88D-08
 ErrMax= 1.88D-08  0.00D+00 EMaxC= 1.00D-01 BMatC= 1.78D-14 BMatP= 1.32D-11
 IDIUse=1 WtCom= 1.00D+00 WtEn= 0.00D+00
 Coeff-Com:  0.290D-04 0.529D-03 0.792D-03-0.322D-02-0.519D-01 0.105D+01
 Coeff:      0.290D-04 0.529D-03 0.792D-03-0.322D-02-0.519D-01 0.105D+01
 Gap=     0.452 Goal=   None    Shift=    0.000
 RMSDP=1.38D-09 MaxDP=4.46D-08 DE=-2.37D-11 OVMax= 1.33D-07

 SCF Done:  E(RM062X) =  -79.8147030090     A.U. after   10 cycles
            NFock= 10  Conv=0.14D-08     -V/T= 2.0049
 KE= 7.942888948620D+01 PE=-2.689493295099D+02 EE= 6.733419627779D+01
 Leave Link  502 at Fri Apr 16 23:08:44 2021, MaxMem=   104857600 cpu:            1790.0 elap:              41.3
 (Enter /s/ls4/users/knvvv/bin/g16sse/l601.exe)
 Copying SCF densities to generalized density rwf, IOpCl= 0 IROHF=0.

 **********************************************************************

            Population analysis using the SCF density.

 **********************************************************************

 Orbital symmetries:
       Occupied  (A1G) (A2U) (A1G) (A2U) (EU) (EU) (A1G) (EG) (EG)
       Virtual   (A1G) (A2U) (EU) (EU) (EG) (EG) (A1G) (EG) (EG)
                 (A2U) (EU) (EU) (EU) (EU) (A2U) (A1G) (EG) (EG)
                 (A2U) (EU) (EU) (A1G) (A2U) (EG) (EG) (A1G) (A1U)
                 (EU) (EU) (EG) (EG) (A2G) (EG) (EG) (A2U) (EU)
                 (EU) (A1G) (A2U) (EG) (EG) (A2U) (EU) (EU) (A1G)
                 (EU) (EU) (EG) (EG) (A1G) (A2U) (EU) (EU) (EG)
                 (EG) (A1G) (A2U) (EG) (EG) (EU) (EU) (A1U) (A1G)
                 (EG) (EG) (EU) (EU) (A2G) (EG) (EG) (EU) (EU)
                 (EU) (EU) (A2U) (A1U) (EG) (EG) (A2U) (A1G) (A2U)
                 (EU) (EU) (EG) (EG) (A1G) (A2G) (EU) (EU) (A2U)
                 (EG) (EG) (EG) (EG) (EU) (EU) (A1G) (A2U) (EU)
                 (EU) (EG) (EG) (A1G) (A1U) (EG) (EG) (A2G) (EG)
                 (EG) (EU) (EU) (A1G) (A2U) (A1U) (A1G) (EU) (EU)
                 (A2U) (A1G) (EG) (EG) (EU) (EU) (A2U) (A1G) (EG)
                 (EG) (EU) (EU) (A2G) (A1G) (EU) (EU) (A2U) (EG)
                 (EG) (EG) (EG) (EU) (EU) (A2U) (EG) (EG) (EU)
                 (EU) (A1U) (EG) (EG) (A2G) (EU) (EU) (A1G) (EU)
                 (EU) (A2U) (EG) (EG) (A2G) (EU) (EU) (EG) (EG)
                 (A1U) (A1G) (A2U) (EG) (EG) (A1U) (A2U) (EU) (EU)
                 (EG) (EG) (A2G) (A1G) (A2U) (EU) (EU) (A1G) (EG)
                 (EG) (EU) (EU) (A1G) (EU) (EU) (EU) (EU) (A1U)
                 (EG) (EG) (A1G) (A2U) (A2U) (EG) (EG) (A1G) (A2G)
                 (EU) (EU) (A1U) (EG) (EG) (A1G) (EU) (EU) (EG)
                 (EG) (A2U) (EG) (EG) (A2U) (EG) (EG) (A1G) (EU)
                 (EU) (EU) (EU) (A2G) (EG) (EG) (EU) (EU) (A2U)
                 (A1G) (EU) (EU) (A2U) (A1U) (EG) (EG) (EG) (EG)
                 (A2G) (EU) (EU) (A1G) (A2U) (EU) (EU) (A1G) (EG)
                 (EG) (A2U) (EG) (EG) (A1U) (EG) (EG) (A1G) (EU)
                 (EU) (EU) (EU) (A2G) (A2U) (EG) (EG) (A2U) (EU)
                 (EU) (EG) (EG) (A1G) (EU) (EU) (A2U) (A1G) (EG)
                 (EG) (A1U) (EU) (EU) (A2G) (EU) (EU) (EG) (EG)
                 (A2U) (A1G) (A1G) (A2U) (A1G) (A2U)
 The electronic state is 1-A1G.
 Alpha  occ. eigenvalues --  -10.52364 -10.52326  -0.85026  -0.70161  -0.50403
 Alpha  occ. eigenvalues --   -0.50403  -0.42833  -0.40384  -0.40384
 Alpha virt. eigenvalues --    0.04828   0.07120   0.09836   0.09836   0.11827
 Alpha virt. eigenvalues --    0.11827   0.15776   0.17595   0.17595   0.18860
 Alpha virt. eigenvalues --    0.20886   0.20886   0.33653   0.33653   0.35221
 Alpha virt. eigenvalues --    0.36067   0.37282   0.37282   0.37831   0.46448
 Alpha virt. eigenvalues --    0.46448   0.50182   0.50618   0.60718   0.60718
 Alpha virt. eigenvalues --    0.63071   0.67063   0.68231   0.68231   0.73187
 Alpha virt. eigenvalues --    0.73187   0.76414   0.79792   0.79792   0.83700
 Alpha virt. eigenvalues --    0.85708   0.85708   0.86460   0.90896   0.91698
 Alpha virt. eigenvalues --    0.91698   0.97003   1.00143   1.00143   1.01250
 Alpha virt. eigenvalues --    1.08276   1.08276   1.08409   1.08409   1.17323
 Alpha virt. eigenvalues --    1.17398   1.26955   1.26955   1.29301   1.29301
 Alpha virt. eigenvalues --    1.39510   1.45754   1.47345   1.47345   1.47357
 Alpha virt. eigenvalues --    1.47357   1.76381   1.77892   1.82096   1.82096
 Alpha virt. eigenvalues --    1.86968   1.86968   1.92206   1.97569   1.97569
 Alpha virt. eigenvalues --    2.02491   2.02491   2.05904   2.05904   2.06797
 Alpha virt. eigenvalues --    2.07085   2.08390   2.08390   2.12140   2.13091
 Alpha virt. eigenvalues --    2.17192   2.19616   2.19616   2.19761   2.19761
 Alpha virt. eigenvalues --    2.20406   2.22273   2.38884   2.38884   2.45837
 Alpha virt. eigenvalues --    2.51166   2.51166   2.55504   2.55504   2.58099
 Alpha virt. eigenvalues --    2.58099   2.64100   2.64117   2.71024   2.71024
 Alpha virt. eigenvalues --    2.78479   2.78479   2.81206   2.84631   2.84748
 Alpha virt. eigenvalues --    2.84748   2.94508   2.97523   2.97523   2.97799
 Alpha virt. eigenvalues --    2.97799   3.01652   3.02105   3.08003   3.11227
 Alpha virt. eigenvalues --    3.14757   3.14757   3.27224   3.28764   3.28941
 Alpha virt. eigenvalues --    3.28941   3.32364   3.32364   3.50121   3.54247
 Alpha virt. eigenvalues --    3.69031   3.69031   3.73404   3.73404   3.84568
 Alpha virt. eigenvalues --    3.85608   3.88690   3.88690   3.88826   3.89652
 Alpha virt. eigenvalues --    3.89652   4.08126   4.08126   4.21945   4.21945
 Alpha virt. eigenvalues --    4.62998   5.08257   5.08257   5.16500   5.16500
 Alpha virt. eigenvalues --    5.24829   5.38764   5.38764   5.43751   5.45325
 Alpha virt. eigenvalues --    5.45325   5.48094   5.67794   5.67794   5.70873
 Alpha virt. eigenvalues --    5.76681   5.76681   5.78465   5.80011   5.80011
 Alpha virt. eigenvalues --    5.81828   5.81828   5.82006   5.86005   5.89610
 Alpha virt. eigenvalues --    5.98861   5.98861   6.01408   6.03056   6.11396
 Alpha virt. eigenvalues --    6.11396   6.14761   6.14761   6.14856   6.15869
 Alpha virt. eigenvalues --    6.24059   6.27152   6.27152   6.32435   6.37018
 Alpha virt. eigenvalues --    6.37018   6.46016   6.46016   6.53969   6.59232
 Alpha virt. eigenvalues --    6.59232   6.63797   6.63797   6.64785   6.67177
 Alpha virt. eigenvalues --    6.67177   6.75450   6.84419   6.92202   7.04609
 Alpha virt. eigenvalues --    7.04609   7.10061   7.14903   7.26227   7.26227
 Alpha virt. eigenvalues --    7.27840   7.28504   7.28504   7.30812   7.35207
 Alpha virt. eigenvalues --    7.35207   7.41028   7.41028   7.47826   7.48217
 Alpha virt. eigenvalues --    7.48217   7.50866   7.54502   7.54502   7.56728
 Alpha virt. eigenvalues --    7.59113   7.59113   7.61041   7.61041   7.70185
 Alpha virt. eigenvalues --    7.73463   7.73463   7.89783   7.89783   7.92974
 Alpha virt. eigenvalues --    7.98296   8.13102   8.13102   8.14183   8.14332
 Alpha virt. eigenvalues --    8.17804   8.17804   8.22811   8.22811   8.25743
 Alpha virt. eigenvalues --    8.26506   8.26506   8.29288   8.33011   8.35858
 Alpha virt. eigenvalues --    8.35858   8.40298   8.42694   8.42694   8.50061
 Alpha virt. eigenvalues --    8.60132   8.60132   8.64479   8.77333   8.77333
 Alpha virt. eigenvalues --    8.83536   8.84319   8.84319   8.90811   8.90811
 Alpha virt. eigenvalues --    8.95180   9.20825   9.51033   9.51033   9.55030
 Alpha virt. eigenvalues --    9.55706   9.55706   9.68386   9.68386   9.69059
 Alpha virt. eigenvalues --    9.69631   9.69631   9.94072  10.03685  10.07509
 Alpha virt. eigenvalues --   10.07509  10.10797  10.22999  10.22999  10.46684
 Alpha virt. eigenvalues --   11.56989  11.56989  11.61374  11.61374  13.05682
 Alpha virt. eigenvalues --   13.10166  29.11262  29.16537 146.62079 146.66847
          Condensed to atoms (all electrons):
               1          2          3          4          5          6
     1  C    5.307578   0.324544   0.373870   0.373870   0.373870  -0.046318
     2  C    0.324544   5.307578  -0.046318  -0.046318  -0.046318   0.373870
     3  H    0.373870  -0.046318   0.535733  -0.033320  -0.033320  -0.005193
     4  H    0.373870  -0.046318  -0.033320   0.535733  -0.033320  -0.005193
     5  H    0.373870  -0.046318  -0.033320  -0.033320   0.535733   0.008817
     6  H   -0.046318   0.373870  -0.005193  -0.005193   0.008817   0.535733
     7  H   -0.046318   0.373870  -0.005193   0.008817  -0.005193  -0.033320
     8  H   -0.046318   0.373870   0.008817  -0.005193  -0.005193  -0.033320
               7          8
     1  C   -0.046318  -0.046318
     2  C    0.373870   0.373870
     3  H   -0.005193   0.008817
     4  H    0.008817  -0.005193
     5  H   -0.005193  -0.005193
     6  H   -0.033320  -0.033320
     7  H    0.535733  -0.033320
     8  H   -0.033320   0.535733
 Mulliken charges:
               1
     1  C   -0.614777
     2  C   -0.614777
     3  H    0.204926
     4  H    0.204926
     5  H    0.204926
     6  H    0.204926
     7  H    0.204926
     8  H    0.204926
 Sum of Mulliken charges =  -0.00000
 Mulliken charges with hydrogens summed into heavy atoms:
               1
     1  C   -0.000000
     2  C   -0.000000
 Electronic spatial extent (au):  <R**2>=            109.3548
 Charge=             -0.0000 electrons
 Dipole moment (field-independent basis, Debye):
    X=              0.0000    Y=             -0.0000    Z=              0.0000  Tot=              0.0000
 Quadrupole moment (field-independent basis, Debye-Ang):
   XX=            -14.9245   YY=            -14.9245   ZZ=            -15.6382
   XY=             -0.0000   XZ=             -0.0000   YZ=             -0.0000
 Traceless Quadrupole moment (field-independent basis, Debye-Ang):
   XX=              0.2379   YY=              0.2379   ZZ=             -0.4758
   XY=             -0.0000   XZ=             -0.0000   YZ=             -0.0000
 Octapole moment (field-independent basis, Debye-Ang**2):
  XXX=              0.0000  YYY=              0.0000  ZZZ=             -0.0000  XYY=              0.0000
  XXY=             -0.0000  XXZ=              0.0000  XZZ=              0.0000  YZZ=              0.0000
  YYZ=             -0.0000  XYZ=             -0.0000
 Hexadecapole moment (field-independent basis, Debye-Ang**3):
 XXXX=            -30.0985 YYYY=            -30.0985 ZZZZ=            -96.1366 XXXY=              0.0000
 XXXZ=             -0.0000 YYYX=              0.0000 YYYZ=              1.4722 ZZZX=             -0.0000
 ZZZY=             -0.0000 XXYY=            -10.0328 XXZZ=            -19.8464 YYZZ=            -19.8464
 XXYZ=             -1.4722 YYXZ=              0.0000 ZZXY=             -0.0000
 N-N= 4.237154073689D+01 E-N=-2.689493294651D+02  KE= 7.942888948620D+01
 PrsmSu:  requested number of processors reduced to:  21 ShMem   1 Linda.
 No NMR shielding tensors so no spin-rotation constants.
 Leave Link  601 at Fri Apr 16 23:08:54 2021, MaxMem=   104857600 cpu:             461.4 elap:              10.0
 (Enter /s/ls4/users/knvvv/bin/g16sse/l801.exe)
 DoSCS=F DFT=T ScalE2(SS,OS)=  1.000000  1.000000
 Range of M.O.s used for correlation:     1   294
 NBasis=   294 NAE=     9 NBE=     9 NFC=     0 NFV=     0
 NROrb=    294 NOA=     9 NOB=     9 NVA=   285 NVB=   285

 **** Warning!!: The largest alpha MO coefficient is  0.28981740D+02

 Leave Link  801 at Fri Apr 16 23:08:55 2021, MaxMem=   104857600 cpu:               4.1 elap:               0.1
 (Enter /s/ls4/users/knvvv/bin/g16sse/l914.exe)
 RHF ground state
 Doing stability rather than CIS.
 Two-electron integrals replicated using symmetry.
 MDV=   104857600 DFT=T DoStab=T Mixed=T DoRPA=F DoScal=F NonHer=F
 Making orbital integer symmetry assigments:
 Orbital symmetries:
       Occupied  (A1G) (A2U) (A1G) (A2U) (EU) (EU) (A1G) (EG) (EG)
       Virtual   (A1G) (A2U) (EU) (EU) (EG) (EG) (A1G) (EG) (EG)
                 (A2U) (EU) (EU) (EU) (EU) (A2U) (A1G) (EG) (EG)
                 (A2U) (EU) (EU) (A1G) (A2U) (EG) (EG) (A1G) (A1U)
                 (EU) (EU) (EG) (EG) (A2G) (EG) (EG) (A2U) (EU)
                 (EU) (A1G) (A2U) (EG) (EG) (A2U) (EU) (EU) (A1G)
                 (EU) (EU) (EG) (EG) (A1G) (A2U) (EU) (EU) (EG)
                 (EG) (A1G) (A2U) (EG) (EG) (EU) (EU) (A1U) (A1G)
                 (EG) (EG) (EU) (EU) (A2G) (EG) (EG) (EU) (EU)
                 (EU) (EU) (A2U) (A1U) (EG) (EG) (A2U) (A1G) (A2U)
                 (EU) (EU) (EG) (EG) (A1G) (A2G) (EU) (EU) (A2U)
                 (EG) (EG) (EG) (EG) (EU) (EU) (A1G) (A2U) (EU)
                 (EU) (EG) (EG) (A1G) (A1U) (EG) (EG) (A2G) (EG)
                 (EG) (EU) (EU) (A1G) (A2U) (A1U) (A1G) (EU) (EU)
                 (A2U) (A1G) (EG) (EG) (EU) (EU) (A2U) (A1G) (EG)
                 (EG) (EU) (EU) (A2G) (A1G) (EU) (EU) (A2U) (EG)
                 (EG) (EG) (EG) (EU) (EU) (A2U) (EG) (EG) (EU)
                 (EU) (A1U) (EG) (EG) (A2G) (EU) (EU) (A1G) (EU)
                 (EU) (A2U) (EG) (EG) (A2G) (EU) (EU) (EG) (EG)
                 (A1U) (A1G) (A2U) (EG) (EG) (A1U) (A2U) (EU) (EU)
                 (EG) (EG) (A2G) (A1G) (A2U) (EU) (EU) (A1G) (EG)
                 (EG) (EU) (EU) (A1G) (EU) (EU) (EU) (EU) (A1U)
                 (EG) (EG) (A1G) (A2U) (A2U) (EG) (EG) (A1G) (A2G)
                 (EU) (EU) (A1U) (EG) (EG) (A1G) (EU) (EU) (EG)
                 (EG) (A2U) (EG) (EG) (A2U) (EG) (EG) (A1G) (EU)
                 (EU) (EU) (EU) (A2G) (EG) (EG) (EU) (EU) (A2U)
                 (A1G) (EU) (EU) (A2U) (A1U) (EG) (EG) (EG) (EG)
                 (A2G) (EU) (EU) (A1G) (A2U) (EU) (EU) (A1G) (EG)
                 (EG) (A2U) (EG) (EG) (A1U) (EG) (EG) (A1G) (EU)
                 (EU) (EU) (EU) (A2G) (A2U) (EG) (EG) (A2U) (EU)
                 (EU) (EG) (EG) (A1G) (EU) (EU) (A2U) (A1G) (EG)
                 (EG) (A1U) (EU) (EU) (A2G) (EU) (EU) (EG) (EG)
                 (A2U) (A1G) (A1G) (A2U) (A1G) (A2U)
    24 initial guesses have been made.
 Convergence on wavefunction:    0.001000000000000
 Davidson Disk Diagonalization:  ConvIn= 1.00D-03 SkipCon=T Conv= 1.00D-03.
 Max sub-space:  2000 roots to seek:    24 dimension of matrix:         5130
 Iteration     1 Dimension    24 NMult     0 NNew     24
 Estimated number of processors is:   18
 CISAX will form     1 AO SS matrices at one time.
 NMat=     1 NSing=     1 JSym2X= 2.
 FoFJK:  IHMeth= 1 ICntrl=       0 DoSepK=F KAlg= 0 I1Cent=           0 FoldK=F
 IRaf= 990000000 NMat=       1 IRICut=       1 DoRegI=T DoRafI=F ISym2E= 2 IDoP0=0 IntGTp=1.
 FoFCou: FMM=F IPFlag=           0 FMFlag=      100000 FMFlg1=           0
         NFxFlg=           0 DoJE=F BraDBF=F KetDBF=F FulRan=T
         wScrn=  0.000000 ICntrl=         0 IOpCl=  0 I1Cent=           0 NGrid=           0
         NMat0=    1 NMatS0=      1 NMatT0=    0 NMatD0=    1 NMtDS0=    0 NMtDT0=    0
 Integrals replicated using symmetry in FoFCou.
 CoulSu:  requested number of processors reduced to:  18 ShMem   1 Linda.
 NMat=     1 NSing=     1 JSym2X= 2.
 CoulSu:  requested number of processors reduced to:  18 ShMem   1 Linda.
 NMat=     1 NSing=     1 JSym2X= 2.
 CoulSu:  requested number of processors reduced to:  18 ShMem   1 Linda.
 NMat=     1 NSing=     1 JSym2X= 2.
 CoulSu:  requested number of processors reduced to:  18 ShMem   1 Linda.
 NMat=     1 NSing=     1 JSym2X= 2.
 CoulSu:  requested number of processors reduced to:  18 ShMem   1 Linda.
 NMat=     1 NSing=     1 JSym2X= 2.
 CoulSu:  requested number of processors reduced to:  18 ShMem   1 Linda.
 NMat=     1 NSing=     1 JSym2X= 2.
 CoulSu:  requested number of processors reduced to:  18 ShMem   1 Linda.
 NMat=     1 NSing=     1 JSym2X= 2.
 CoulSu:  requested number of processors reduced to:  18 ShMem   1 Linda.
 NMat=     1 NSing=     1 JSym2X= 2.
 CoulSu:  requested number of processors reduced to:  18 ShMem   1 Linda.
 NMat=     1 NSing=     1 JSym2X= 2.
 CoulSu:  requested number of processors reduced to:  18 ShMem   1 Linda.
 NMat=     1 NSing=     1 JSym2X= 2.
 CoulSu:  requested number of processors reduced to:  18 ShMem   1 Linda.
 NMat=     1 NSing=     1 JSym2X= 2.
 CoulSu:  requested number of processors reduced to:  18 ShMem   1 Linda.
 NMat=     1 NSing=     0 JSym2X= 2.
 CoulSu:  requested number of processors reduced to:  18 ShMem   1 Linda.
 NMat=     1 NSing=     0 JSym2X= 2.
 CoulSu:  requested number of processors reduced to:  18 ShMem   1 Linda.
 NMat=     1 NSing=     0 JSym2X= 2.
 CoulSu:  requested number of processors reduced to:  18 ShMem   1 Linda.
 NMat=     1 NSing=     0 JSym2X= 2.
 CoulSu:  requested number of processors reduced to:  18 ShMem   1 Linda.
 NMat=     1 NSing=     0 JSym2X= 2.
 CoulSu:  requested number of processors reduced to:  18 ShMem   1 Linda.
 NMat=     1 NSing=     0 JSym2X= 2.
 CoulSu:  requested number of processors reduced to:  18 ShMem   1 Linda.
 NMat=     1 NSing=     0 JSym2X= 2.
 CoulSu:  requested number of processors reduced to:  18 ShMem   1 Linda.
 NMat=     1 NSing=     0 JSym2X= 2.
 CoulSu:  requested number of processors reduced to:  18 ShMem   1 Linda.
 NMat=     1 NSing=     0 JSym2X= 2.
 CoulSu:  requested number of processors reduced to:  18 ShMem   1 Linda.
 NMat=     1 NSing=     0 JSym2X= 2.
 CoulSu:  requested number of processors reduced to:  18 ShMem   1 Linda.
 NMat=     1 NSing=     0 JSym2X= 2.
 CoulSu:  requested number of processors reduced to:  18 ShMem   1 Linda.
 NMat=     1 NSing=     0 JSym2X= 2.
 CoulSu:  requested number of processors reduced to:  18 ShMem   1 Linda.
 New state      1 was old state      2
 Excitation Energies [eV] at current iteration:
 Root      1 :     9.561912067880842
 Root      2 :     9.561937651134002
 Root      3 :     9.618236035694885
 Root      4 :     9.618261152786452
 Root      5 :    10.028421388704740
 Root      6 :    10.451149522199470
 Root      7 :    10.451163735249890
 Root      8 :    10.488315450881880
 Root      9 :    10.563594640725420
 Root     10 :    10.563606845823850
 Root     11 :    11.007551616682680
 Root     12 :    11.023303233050100
 Root     13 :    11.039692309370830
 Root     14 :    11.077860210109160
 Root     15 :    11.077866220249670
 Root     16 :    11.106805816217580
 Root     17 :    11.106810321420020
 Root     18 :    11.262022530626190
 Root     19 :    11.430585716362590
 Root     20 :    11.453728357471060
 Root     21 :    11.455901364682310
 Root     22 :    11.581011845914060
 Root     23 :    12.046990517353710
 Root     24 :    12.104986250448140
 Iteration     2 Dimension    48 NMult    24 NNew     24
 Estimated number of processors is:   18
 CISAX will form     1 AO SS matrices at one time.
 NMat=     1 NSing=     1 JSym2X= 2.
 CoulSu:  requested number of processors reduced to:  18 ShMem   1 Linda.
 NMat=     1 NSing=     1 JSym2X= 2.
 CoulSu:  requested number of processors reduced to:  18 ShMem   1 Linda.
 NMat=     1 NSing=     1 JSym2X= 2.
 CoulSu:  requested number of processors reduced to:  18 ShMem   1 Linda.
 NMat=     1 NSing=     1 JSym2X= 2.
 CoulSu:  requested number of processors reduced to:  18 ShMem   1 Linda.
 NMat=     1 NSing=     1 JSym2X= 2.
 CoulSu:  requested number of processors reduced to:  18 ShMem   1 Linda.
 NMat=     1 NSing=     1 JSym2X= 2.
 CoulSu:  requested number of processors reduced to:  18 ShMem   1 Linda.
 NMat=     1 NSing=     1 JSym2X= 2.
 CoulSu:  requested number of processors reduced to:  18 ShMem   1 Linda.
 NMat=     1 NSing=     1 JSym2X= 2.
 CoulSu:  requested number of processors reduced to:  18 ShMem   1 Linda.
 NMat=     1 NSing=     1 JSym2X= 2.
 CoulSu:  requested number of processors reduced to:  18 ShMem   1 Linda.
 NMat=     1 NSing=     1 JSym2X= 2.
 CoulSu:  requested number of processors reduced to:  18 ShMem   1 Linda.
 NMat=     1 NSing=     1 JSym2X= 2.
 CoulSu:  requested number of processors reduced to:  18 ShMem   1 Linda.
 NMat=     1 NSing=     1 JSym2X= 2.
 CoulSu:  requested number of processors reduced to:  18 ShMem   1 Linda.
 NMat=     1 NSing=     0 JSym2X= 2.
 CoulSu:  requested number of processors reduced to:  18 ShMem   1 Linda.
 NMat=     1 NSing=     0 JSym2X= 2.
 CoulSu:  requested number of processors reduced to:  18 ShMem   1 Linda.
 NMat=     1 NSing=     0 JSym2X= 2.
 CoulSu:  requested number of processors reduced to:  18 ShMem   1 Linda.
 NMat=     1 NSing=     0 JSym2X= 2.
 CoulSu:  requested number of processors reduced to:  18 ShMem   1 Linda.
 NMat=     1 NSing=     0 JSym2X= 2.
 CoulSu:  requested number of processors reduced to:  18 ShMem   1 Linda.
 NMat=     1 NSing=     0 JSym2X= 2.
 CoulSu:  requested number of processors reduced to:  18 ShMem   1 Linda.
 NMat=     1 NSing=     0 JSym2X= 2.
 CoulSu:  requested number of processors reduced to:  18 ShMem   1 Linda.
 NMat=     1 NSing=     0 JSym2X= 2.
 CoulSu:  requested number of processors reduced to:  18 ShMem   1 Linda.
 NMat=     1 NSing=     0 JSym2X= 2.
 CoulSu:  requested number of processors reduced to:  18 ShMem   1 Linda.
 NMat=     1 NSing=     0 JSym2X= 2.
 CoulSu:  requested number of processors reduced to:  18 ShMem   1 Linda.
 NMat=     1 NSing=     0 JSym2X= 2.
 CoulSu:  requested number of processors reduced to:  18 ShMem   1 Linda.
 NMat=     1 NSing=     0 JSym2X= 2.
 CoulSu:  requested number of processors reduced to:  18 ShMem   1 Linda.
 Root      1 not converged, maximum delta is    0.095775800215306
 Excitation Energies [eV] at current iteration:
 Root      1 :     9.186493465001611   Change is   -0.375418602879231
 Root      2 :     9.187106264140851   Change is   -0.374831386993152
 Root      3 :     9.497137699374104   Change is   -0.121123453412347
 Root      4 :     9.497840704281975   Change is   -0.120395331412910
 Root      5 :     9.723153415390247   Change is   -0.305267973314495
 Root      6 :    10.030608381937290   Change is   -0.420541140262177
 Root      7 :    10.030680486229060   Change is   -0.420483249020825
 Root      8 :    10.253541147090760   Change is   -0.234774303791116
 Root      9 :    10.265022421047910   Change is   -0.742529195634769
 Root     10 :    10.427373666312530   Change is   -0.136220974412895
 Root     11 :    10.427389664958460   Change is   -0.136217180865394
 Root     12 :    10.785744565321960   Change is   -0.292115644787205
 Root     13 :    10.785746296911210   Change is   -0.292119923338467
 Root     14 :    10.897100398326940   Change is   -0.533485318035657
 Root     15 :    10.906155989616260   Change is   -0.117147243433845
 Root     16 :    10.920728995993660   Change is   -0.118963313377176
 Root     17 :    10.928463163680610   Change is   -0.525265193790449
 Root     18 :    10.946708415662990   Change is   -0.160097400554591
 Root     19 :    10.946711432139530   Change is   -0.160098889280483
 Root     20 :    11.081956928725480   Change is   -0.373944435956835
 Root     21 :    11.134851364946500   Change is   -0.127171165679690
 Root     22 :    11.415307478372410   Change is   -0.165704367541647
 Root     23 :    11.513361803956790   Change is   -0.533628713396925
 Root     24 :    11.667431575092340   Change is   -0.437554675355800
 Iteration     3 Dimension    54 NMult    48 NNew      6
 Estimated number of processors is:   18
 CISAX will form     1 AO SS matrices at one time.
 NMat=     1 NSing=     1 JSym2X= 2.
 CoulSu:  requested number of processors reduced to:  18 ShMem   1 Linda.
 NMat=     1 NSing=     1 JSym2X= 2.
 CoulSu:  requested number of processors reduced to:  18 ShMem   1 Linda.
 NMat=     1 NSing=     1 JSym2X= 2.
 CoulSu:  requested number of processors reduced to:  18 ShMem   1 Linda.
 NMat=     1 NSing=     0 JSym2X= 2.
 CoulSu:  requested number of processors reduced to:  18 ShMem   1 Linda.
 NMat=     1 NSing=     0 JSym2X= 2.
 CoulSu:  requested number of processors reduced to:  18 ShMem   1 Linda.
 NMat=     1 NSing=     0 JSym2X= 2.
 CoulSu:  requested number of processors reduced to:  18 ShMem   1 Linda.
 Root      1 not converged, maximum delta is    0.020523840726833
 Excitation Energies [eV] at current iteration:
 Root      1 :     9.148611655819522   Change is   -0.037881809182090
 Root      2 :     9.148990100762360   Change is   -0.038116163378491
 Root      3 :     9.489926598973303   Change is   -0.007211100400800
 Root      4 :     9.490128806276322   Change is   -0.007711898005652
 Root      5 :     9.661548465570858   Change is   -0.061604949819389
 Root      6 :    10.221257117423330   Change is   -0.032284029667433
 Iteration     4 Dimension    60 NMult    54 NNew      6
 Estimated number of processors is:   18
 CISAX will form     1 AO SS matrices at one time.
 NMat=     1 NSing=     1 JSym2X= 2.
 CoulSu:  requested number of processors reduced to:  18 ShMem   1 Linda.
 NMat=     1 NSing=     1 JSym2X= 2.
 CoulSu:  requested number of processors reduced to:  18 ShMem   1 Linda.
 NMat=     1 NSing=     1 JSym2X= 2.
 CoulSu:  requested number of processors reduced to:  18 ShMem   1 Linda.
 NMat=     1 NSing=     0 JSym2X= 2.
 CoulSu:  requested number of processors reduced to:  18 ShMem   1 Linda.
 NMat=     1 NSing=     0 JSym2X= 2.
 CoulSu:  requested number of processors reduced to:  18 ShMem   1 Linda.
 NMat=     1 NSing=     0 JSym2X= 2.
 CoulSu:  requested number of processors reduced to:  18 ShMem   1 Linda.
 Root      1 not converged, maximum delta is    0.014692886844281
 Excitation Energies [eV] at current iteration:
 Root      1 :     9.143416383877614   Change is   -0.005195271941907
 Root      2 :     9.143717660813566   Change is   -0.005272439948794
 Root      3 :     9.489586805851408   Change is   -0.000542000424916
 Root      4 :     9.489595016764511   Change is   -0.000331582208793
 Root      5 :     9.636696753684861   Change is   -0.024851711885998
 Root      6 :    10.218534929694280   Change is   -0.002722187729046
 Iteration     5 Dimension    66 NMult    60 NNew      6
 Estimated number of processors is:   18
 CISAX will form     1 AO SS matrices at one time.
 NMat=     1 NSing=     1 JSym2X= 2.
 CoulSu:  requested number of processors reduced to:  18 ShMem   1 Linda.
 NMat=     1 NSing=     1 JSym2X= 2.
 CoulSu:  requested number of processors reduced to:  18 ShMem   1 Linda.
 NMat=     1 NSing=     1 JSym2X= 2.
 CoulSu:  requested number of processors reduced to:  18 ShMem   1 Linda.
 NMat=     1 NSing=     0 JSym2X= 2.
 CoulSu:  requested number of processors reduced to:  18 ShMem   1 Linda.
 NMat=     1 NSing=     0 JSym2X= 2.
 CoulSu:  requested number of processors reduced to:  18 ShMem   1 Linda.
 NMat=     1 NSing=     0 JSym2X= 2.
 CoulSu:  requested number of processors reduced to:  18 ShMem   1 Linda.
 Root      1 not converged, maximum delta is    0.027756544819243
 Excitation Energies [eV] at current iteration:
 Root      1 :     9.142871802525930   Change is   -0.000544581351684
 Root      2 :     9.143009414595381   Change is   -0.000708246218185
 Root      3 :     9.489527964452044   Change is   -0.000058841399363
 Root      4 :     9.489561918125023   Change is   -0.000033098639487
 Root      5 :     9.632389770887015   Change is   -0.004306982797845
 Root      6 :    10.217978351641660   Change is   -0.000556578052624
 Iteration     6 Dimension    72 NMult    66 NNew      6
 Estimated number of processors is:   18
 CISAX will form     1 AO SS matrices at one time.
 NMat=     1 NSing=     1 JSym2X= 2.
 CoulSu:  requested number of processors reduced to:  18 ShMem   1 Linda.
 NMat=     1 NSing=     1 JSym2X= 2.
 CoulSu:  requested number of processors reduced to:  18 ShMem   1 Linda.
 NMat=     1 NSing=     1 JSym2X= 2.
 CoulSu:  requested number of processors reduced to:  18 ShMem   1 Linda.
 NMat=     1 NSing=     0 JSym2X= 2.
 CoulSu:  requested number of processors reduced to:  18 ShMem   1 Linda.
 NMat=     1 NSing=     0 JSym2X= 2.
 CoulSu:  requested number of processors reduced to:  18 ShMem   1 Linda.
 NMat=     1 NSing=     0 JSym2X= 2.
 CoulSu:  requested number of processors reduced to:  18 ShMem   1 Linda.
 Root      1 not converged, maximum delta is    0.009777605418360
 Excitation Energies [eV] at current iteration:
 Root      1 :     9.142836814271986   Change is   -0.000034988253944
 Root      2 :     9.142952220445295   Change is   -0.000057194150086
 Root      3 :     9.489522823180639   Change is   -0.000005141271404
 Root      4 :     9.489559987630052   Change is   -0.000001930494971
 Root      5 :     9.631863355874813   Change is   -0.000526415012202
 Root      6 :    10.217910883386310   Change is   -0.000067468255346
 Iteration     7 Dimension    78 NMult    72 NNew      6
 Estimated number of processors is:   18
 CISAX will form     1 AO SS matrices at one time.
 NMat=     1 NSing=     1 JSym2X= 2.
 CoulSu:  requested number of processors reduced to:  18 ShMem   1 Linda.
 NMat=     1 NSing=     1 JSym2X= 2.
 CoulSu:  requested number of processors reduced to:  18 ShMem   1 Linda.
 NMat=     1 NSing=     1 JSym2X= 2.
 CoulSu:  requested number of processors reduced to:  18 ShMem   1 Linda.
 NMat=     1 NSing=     0 JSym2X= 2.
 CoulSu:  requested number of processors reduced to:  18 ShMem   1 Linda.
 NMat=     1 NSing=     0 JSym2X= 2.
 CoulSu:  requested number of processors reduced to:  18 ShMem   1 Linda.
 NMat=     1 NSing=     0 JSym2X= 2.
 CoulSu:  requested number of processors reduced to:  18 ShMem   1 Linda.
 Root      1 not converged, maximum delta is    0.001771751629871
 Excitation Energies [eV] at current iteration:
 Root      1 :     9.142835075224138   Change is   -0.000001739047848
 Root      2 :     9.142947406970016   Change is   -0.000004813475279
 Root      3 :     9.489522575732884   Change is   -0.000000247447756
 Root      4 :     9.489559888647333   Change is   -0.000000098982720
 Root      5 :     9.631825980477680   Change is   -0.000037375397133
 Root      6 :    10.217903883489360   Change is   -0.000006999896950
 Iteration     8 Dimension    84 NMult    78 NNew      6
 Estimated number of processors is:   18
 CISAX will form     1 AO SS matrices at one time.
 NMat=     1 NSing=     1 JSym2X= 2.
 CoulSu:  requested number of processors reduced to:  18 ShMem   1 Linda.
 NMat=     1 NSing=     1 JSym2X= 2.
 CoulSu:  requested number of processors reduced to:  18 ShMem   1 Linda.
 NMat=     1 NSing=     1 JSym2X= 2.
 CoulSu:  requested number of processors reduced to:  18 ShMem   1 Linda.
 NMat=     1 NSing=     0 JSym2X= 2.
 CoulSu:  requested number of processors reduced to:  18 ShMem   1 Linda.
 NMat=     1 NSing=     0 JSym2X= 2.
 CoulSu:  requested number of processors reduced to:  18 ShMem   1 Linda.
 NMat=     1 NSing=     0 JSym2X= 2.
 CoulSu:  requested number of processors reduced to:  18 ShMem   1 Linda.
 Root      1 has converged.
 Excitation Energies [eV] at current iteration:
 Root      1 :     9.142835007300405   Change is   -0.000000067923732
 Root      2 :     9.142946961904157   Change is   -0.000000445065859
 Root      3 :     9.489522557673350   Change is   -0.000000018059534
 Root      4 :     9.489559876936633   Change is   -0.000000011710698
 Root      5 :     9.631823708353258   Change is   -0.000002272124423
 Root      6 :    10.217903308616200   Change is   -0.000000574873160
 Convergence achieved on expansion vectors.
 ***********************************************************************
 Stability analysis using <AA,BB:AA,BB> singles matrix:
 ***********************************************************************
 1PDM for each excited state written to RWF  633
 Ground to excited state transition densities written to RWF  633

 Eigenvectors of the stability matrix:
 
 Eigenvector   1:      Triplet-EG   Eigenvalue= 0.3359930  <S**2>=2.000
       8 -> 10        -0.38420
       9 -> 10         0.55791
 The wavefunction is stable under the perturbations considered.
 Leave Link  914 at Fri Apr 16 23:21:37 2021, MaxMem=   104857600 cpu:           31436.5 elap:             762.7
 (Enter /s/ls4/users/knvvv/bin/g16sse/l508.exe)
 The wavefunction is already stable.
 Leave Link  508 at Fri Apr 16 23:21:37 2021, MaxMem=   104857600 cpu:               2.1 elap:               0.1
 (Enter /s/ls4/users/knvvv/bin/g16sse/l601.exe)
 Copying SCF densities to generalized density rwf, IOpCl= 0 IROHF=0.

 **********************************************************************

            Population analysis using the SCF density.

 **********************************************************************

 Orbital symmetries:
       Occupied  (A1G) (A2U) (A1G) (A2U) (EU) (EU) (A1G) (EG) (EG)
       Virtual   (A1G) (A2U) (EU) (EU) (EG) (EG) (A1G) (EG) (EG)
                 (A2U) (EU) (EU) (EU) (EU) (A2U) (A1G) (EG) (EG)
                 (A2U) (EU) (EU) (A1G) (A2U) (EG) (EG) (A1G) (A1U)
                 (EU) (EU) (EG) (EG) (A2G) (EG) (EG) (A2U) (EU)
                 (EU) (A1G) (A2U) (EG) (EG) (A2U) (EU) (EU) (A1G)
                 (EU) (EU) (EG) (EG) (A1G) (A2U) (EU) (EU) (EG)
                 (EG) (A1G) (A2U) (EG) (EG) (EU) (EU) (A1U) (A1G)
                 (EG) (EG) (EU) (EU) (A2G) (EG) (EG) (EU) (EU)
                 (EU) (EU) (A2U) (A1U) (EG) (EG) (A2U) (A1G) (A2U)
                 (EU) (EU) (EG) (EG) (A1G) (A2G) (EU) (EU) (A2U)
                 (EG) (EG) (EG) (EG) (EU) (EU) (A1G) (A2U) (EU)
                 (EU) (EG) (EG) (A1G) (A1U) (EG) (EG) (A2G) (EG)
                 (EG) (EU) (EU) (A1G) (A2U) (A1U) (A1G) (EU) (EU)
                 (A2U) (A1G) (EG) (EG) (EU) (EU) (A2U) (A1G) (EG)
                 (EG) (EU) (EU) (A2G) (A1G) (EU) (EU) (A2U) (EG)
                 (EG) (EG) (EG) (EU) (EU) (A2U) (EG) (EG) (EU)
                 (EU) (A1U) (EG) (EG) (A2G) (EU) (EU) (A1G) (EU)
                 (EU) (A2U) (EG) (EG) (A2G) (EU) (EU) (EG) (EG)
                 (A1U) (A1G) (A2U) (EG) (EG) (A1U) (A2U) (EU) (EU)
                 (EG) (EG) (A2G) (A1G) (A2U) (EU) (EU) (A1G) (EG)
                 (EG) (EU) (EU) (A1G) (EU) (EU) (EU) (EU) (A1U)
                 (EG) (EG) (A1G) (A2U) (A2U) (EG) (EG) (A1G) (A2G)
                 (EU) (EU) (A1U) (EG) (EG) (A1G) (EU) (EU) (EG)
                 (EG) (A2U) (EG) (EG) (A2U) (EG) (EG) (A1G) (EU)
                 (EU) (EU) (EU) (A2G) (EG) (EG) (EU) (EU) (A2U)
                 (A1G) (EU) (EU) (A2U) (A1U) (EG) (EG) (EG) (EG)
                 (A2G) (EU) (EU) (A1G) (A2U) (EU) (EU) (A1G) (EG)
                 (EG) (A2U) (EG) (EG) (A1U) (EG) (EG) (A1G) (EU)
                 (EU) (EU) (EU) (A2G) (A2U) (EG) (EG) (A2U) (EU)
                 (EU) (EG) (EG) (A1G) (EU) (EU) (A2U) (A1G) (EG)
                 (EG) (A1U) (EU) (EU) (A2G) (EU) (EU) (EG) (EG)
                 (A2U) (A1G) (A1G) (A2U) (A1G) (A2U)
 The electronic state is 1-A1G.
 Alpha  occ. eigenvalues --  -10.52364 -10.52326  -0.85026  -0.70161  -0.50403
 Alpha  occ. eigenvalues --   -0.50403  -0.42833  -0.40384  -0.40384
 Alpha virt. eigenvalues --    0.04828   0.07120   0.09836   0.09836   0.11827
 Alpha virt. eigenvalues --    0.11827   0.15776   0.17595   0.17595   0.18860
 Alpha virt. eigenvalues --    0.20886   0.20886   0.33653   0.33653   0.35221
 Alpha virt. eigenvalues --    0.36067   0.37282   0.37282   0.37831   0.46448
 Alpha virt. eigenvalues --    0.46448   0.50182   0.50618   0.60718   0.60718
 Alpha virt. eigenvalues --    0.63071   0.67063   0.68231   0.68231   0.73187
 Alpha virt. eigenvalues --    0.73187   0.76414   0.79792   0.79792   0.83700
 Alpha virt. eigenvalues --    0.85708   0.85708   0.86460   0.90896   0.91698
 Alpha virt. eigenvalues --    0.91698   0.97003   1.00143   1.00143   1.01250
 Alpha virt. eigenvalues --    1.08276   1.08276   1.08409   1.08409   1.17323
 Alpha virt. eigenvalues --    1.17398   1.26955   1.26955   1.29301   1.29301
 Alpha virt. eigenvalues --    1.39510   1.45754   1.47345   1.47345   1.47357
 Alpha virt. eigenvalues --    1.47357   1.76381   1.77892   1.82096   1.82096
 Alpha virt. eigenvalues --    1.86968   1.86968   1.92206   1.97569   1.97569
 Alpha virt. eigenvalues --    2.02491   2.02491   2.05904   2.05904   2.06797
 Alpha virt. eigenvalues --    2.07085   2.08390   2.08390   2.12140   2.13091
 Alpha virt. eigenvalues --    2.17192   2.19616   2.19616   2.19761   2.19761
 Alpha virt. eigenvalues --    2.20406   2.22273   2.38884   2.38884   2.45837
 Alpha virt. eigenvalues --    2.51166   2.51166   2.55504   2.55504   2.58099
 Alpha virt. eigenvalues --    2.58099   2.64100   2.64117   2.71024   2.71024
 Alpha virt. eigenvalues --    2.78479   2.78479   2.81206   2.84631   2.84748
 Alpha virt. eigenvalues --    2.84748   2.94508   2.97523   2.97523   2.97799
 Alpha virt. eigenvalues --    2.97799   3.01652   3.02105   3.08003   3.11227
 Alpha virt. eigenvalues --    3.14757   3.14757   3.27224   3.28764   3.28941
 Alpha virt. eigenvalues --    3.28941   3.32364   3.32364   3.50121   3.54247
 Alpha virt. eigenvalues --    3.69031   3.69031   3.73404   3.73404   3.84568
 Alpha virt. eigenvalues --    3.85608   3.88690   3.88690   3.88826   3.89652
 Alpha virt. eigenvalues --    3.89652   4.08126   4.08126   4.21945   4.21945
 Alpha virt. eigenvalues --    4.62998   5.08257   5.08257   5.16500   5.16500
 Alpha virt. eigenvalues --    5.24829   5.38764   5.38764   5.43751   5.45325
 Alpha virt. eigenvalues --    5.45325   5.48094   5.67794   5.67794   5.70873
 Alpha virt. eigenvalues --    5.76681   5.76681   5.78465   5.80011   5.80011
 Alpha virt. eigenvalues --    5.81828   5.81828   5.82006   5.86005   5.89610
 Alpha virt. eigenvalues --    5.98861   5.98861   6.01408   6.03056   6.11396
 Alpha virt. eigenvalues --    6.11396   6.14761   6.14761   6.14856   6.15869
 Alpha virt. eigenvalues --    6.24059   6.27152   6.27152   6.32435   6.37018
 Alpha virt. eigenvalues --    6.37018   6.46016   6.46016   6.53969   6.59232
 Alpha virt. eigenvalues --    6.59232   6.63797   6.63797   6.64785   6.67177
 Alpha virt. eigenvalues --    6.67177   6.75450   6.84419   6.92202   7.04609
 Alpha virt. eigenvalues --    7.04609   7.10061   7.14903   7.26227   7.26227
 Alpha virt. eigenvalues --    7.27840   7.28504   7.28504   7.30812   7.35207
 Alpha virt. eigenvalues --    7.35207   7.41028   7.41028   7.47826   7.48217
 Alpha virt. eigenvalues --    7.48217   7.50866   7.54502   7.54502   7.56728
 Alpha virt. eigenvalues --    7.59113   7.59113   7.61041   7.61041   7.70185
 Alpha virt. eigenvalues --    7.73463   7.73463   7.89783   7.89783   7.92974
 Alpha virt. eigenvalues --    7.98296   8.13102   8.13102   8.14183   8.14332
 Alpha virt. eigenvalues --    8.17804   8.17804   8.22811   8.22811   8.25743
 Alpha virt. eigenvalues --    8.26506   8.26506   8.29288   8.33011   8.35858
 Alpha virt. eigenvalues --    8.35858   8.40298   8.42694   8.42694   8.50061
 Alpha virt. eigenvalues --    8.60132   8.60132   8.64479   8.77333   8.77333
 Alpha virt. eigenvalues --    8.83536   8.84319   8.84319   8.90811   8.90811
 Alpha virt. eigenvalues --    8.95180   9.20825   9.51033   9.51033   9.55030
 Alpha virt. eigenvalues --    9.55706   9.55706   9.68386   9.68386   9.69059
 Alpha virt. eigenvalues --    9.69631   9.69631   9.94072  10.03685  10.07509
 Alpha virt. eigenvalues --   10.07509  10.10797  10.22999  10.22999  10.46684
 Alpha virt. eigenvalues --   11.56989  11.56989  11.61374  11.61374  13.05682
 Alpha virt. eigenvalues --   13.10166  29.11262  29.16537 146.62079 146.66847
          Condensed to atoms (all electrons):
               1          2          3          4          5          6
     1  C    5.307578   0.324544   0.373870   0.373870   0.373870  -0.046318
     2  C    0.324544   5.307578  -0.046318  -0.046318  -0.046318   0.373870
     3  H    0.373870  -0.046318   0.535733  -0.033320  -0.033320  -0.005193
     4  H    0.373870  -0.046318  -0.033320   0.535733  -0.033320  -0.005193
     5  H    0.373870  -0.046318  -0.033320  -0.033320   0.535733   0.008817
     6  H   -0.046318   0.373870  -0.005193  -0.005193   0.008817   0.535733
     7  H   -0.046318   0.373870  -0.005193   0.008817  -0.005193  -0.033320
     8  H   -0.046318   0.373870   0.008817  -0.005193  -0.005193  -0.033320
               7          8
     1  C   -0.046318  -0.046318
     2  C    0.373870   0.373870
     3  H   -0.005193   0.008817
     4  H    0.008817  -0.005193
     5  H   -0.005193  -0.005193
     6  H   -0.033320  -0.033320
     7  H    0.535733  -0.033320
     8  H   -0.033320   0.535733
 Mulliken charges:
               1
     1  C   -0.614777
     2  C   -0.614777
     3  H    0.204926
     4  H    0.204926
     5  H    0.204926
     6  H    0.204926
     7  H    0.204926
     8  H    0.204926
 Sum of Mulliken charges =  -0.00000
 Mulliken charges with hydrogens summed into heavy atoms:
               1
     1  C   -0.000000
     2  C   -0.000000
 Electronic spatial extent (au):  <R**2>=            109.3548
 Charge=             -0.0000 electrons
 Dipole moment (field-independent basis, Debye):
    X=              0.0000    Y=             -0.0000    Z=              0.0000  Tot=              0.0000
 Quadrupole moment (field-independent basis, Debye-Ang):
   XX=            -14.9245   YY=            -14.9245   ZZ=            -15.6382
   XY=             -0.0000   XZ=             -0.0000   YZ=             -0.0000
 Traceless Quadrupole moment (field-independent basis, Debye-Ang):
   XX=              0.2379   YY=              0.2379   ZZ=             -0.4758
   XY=             -0.0000   XZ=             -0.0000   YZ=             -0.0000
 Octapole moment (field-independent basis, Debye-Ang**2):
  XXX=              0.0000  YYY=              0.0000  ZZZ=             -0.0000  XYY=              0.0000
  XXY=             -0.0000  XXZ=              0.0000  XZZ=              0.0000  YZZ=              0.0000
  YYZ=             -0.0000  XYZ=             -0.0000
 Hexadecapole moment (field-independent basis, Debye-Ang**3):
 XXXX=            -30.0985 YYYY=            -30.0985 ZZZZ=            -96.1366 XXXY=              0.0000
 XXXZ=             -0.0000 YYYX=              0.0000 YYYZ=              1.4722 ZZZX=             -0.0000
 ZZZY=             -0.0000 XXYY=            -10.0328 XXZZ=            -19.8464 YYZZ=            -19.8464
 XXYZ=             -1.4722 YYXZ=              0.0000 ZZXY=             -0.0000
 N-N= 4.237154073689D+01 E-N=-2.689493294651D+02  KE= 7.942888948620D+01
 PrsmSu:  requested number of processors reduced to:  21 ShMem   1 Linda.
 No NMR shielding tensors so no spin-rotation constants.
 Leave Link  601 at Fri Apr 16 23:21:48 2021, MaxMem=   104857600 cpu:             471.6 elap:              10.2
 (Enter /s/ls4/users/knvvv/bin/g16sse/l9999.exe)

 Test job not archived.
 1\1\GINC-N150\Stability\RM062X\def2QZVP\C2H6\KNVVV\16-Apr-2021\0\\#P M
 062X/Def2QZVP Integral=UltraFineGrid SCF=NoSymm Stable=(RExt, Opt) IOp
 (1/33=1)\\Database calculations.\\0,1\C,0,0.,0.,-0.7616894367\C,0,0.,0
 .,0.7616894367\H,0,-0.8786003223,0.5072601326,-1.1557650592\H,0,0.,-1.
 0145202651,-1.1557650592\H,0,0.8786003223,0.5072601326,-1.1557650592\H
 ,0,-0.8786003223,-0.5072601326,1.1557650592\H,0,0.,1.0145202651,1.1557
 650592\H,0,0.8786003223,-0.5072601326,1.1557650592\\Version=ES64L-G16R
 evA.03\State=1-A1G\HF=-79.814703\RMSD=1.375e-09\Dipole=0.,0.,0.\Quadru
 pole=0.1768775,0.1768775,-0.3537551,0.,0.,0.\PG=D03D [C3(C1.C1),3SGD(H
 2)]\\@


 MUD THROWN IS GROUND LOST -- FROM A TEA BAG
 Job cpu time:       0 days 10 hours 17 minutes 10.6 seconds.
 Elapsed time:       0 days  0 hours 14 minutes 45.8 seconds.
 File lengths (MBytes):  RWF=    161 Int=      0 D2E=      0 Chk=     10 Scr=      1
 Normal termination of Gaussian 16 at Fri Apr 16 23:21:48 2021.
