 Entering Gaussian System, Link 0=/s/ls4/users/knvvv/bin/g16sse/g16
 Input=data/database/M062X--def2-QZVPPD--17_Isomer7_mon6_FmH2O10.gjf
 Output=data/database/M062X--def2-QZVPPD--17_Isomer7_mon6_FmH2O10.log
 Initial command:
 /s/ls4/users/knvvv/bin/g16sse/l1.exe "/s/ls4/users/knvvv/bin/scratch/Gau-19677.inp" -scrdir="/s/ls4/users/knvvv/bin/scratch/"
 Entering Link 1 = /s/ls4/users/knvvv/bin/g16sse/l1.exe PID=     19678.
  
 Copyright (c) 1988,1990,1992,1993,1995,1998,2003,2009,2016,
            Gaussian, Inc.  All Rights Reserved.
  
 This is part of the Gaussian(R) 16 program.  It is based on
 the Gaussian(R) 09 system (copyright 2009, Gaussian, Inc.),
 the Gaussian(R) 03 system (copyright 2003, Gaussian, Inc.),
 the Gaussian(R) 98 system (copyright 1998, Gaussian, Inc.),
 the Gaussian(R) 94 system (copyright 1995, Gaussian, Inc.),
 the Gaussian 92(TM) system (copyright 1992, Gaussian, Inc.),
 the Gaussian 90(TM) system (copyright 1990, Gaussian, Inc.),
 the Gaussian 88(TM) system (copyright 1988, Gaussian, Inc.),
 the Gaussian 86(TM) system (copyright 1986, Carnegie Mellon
 University), and the Gaussian 82(TM) system (copyright 1983,
 Carnegie Mellon University). Gaussian is a federally registered
 trademark of Gaussian, Inc.
  
 This software contains proprietary and confidential information,
 including trade secrets, belonging to Gaussian, Inc.
  
 This software is provided under written license and may be
 used, copied, transmitted, or stored only in accord with that
 written license.
  
 The following legend is applicable only to US Government
 contracts under FAR:
  
                    RESTRICTED RIGHTS LEGEND
  
 Use, reproduction and disclosure by the US Government is
 subject to restrictions as set forth in subparagraphs (a)
 and (c) of the Commercial Computer Software - Restricted
 Rights clause in FAR 52.227-19.
  
 Gaussian, Inc.
 340 Quinnipiac St., Bldg. 40, Wallingford CT 06492
  
  
 ---------------------------------------------------------------
 Warning -- This program may not be used in any manner that
 competes with the business of Gaussian, Inc. or will provide
 assistance to any competitor of Gaussian, Inc.  The licensee
 of this program is prohibited from giving any competitor of
 Gaussian, Inc. access to this program.  By using this program,
 the user acknowledges that Gaussian, Inc. is engaged in the
 business of creating and licensing software in the field of
 computational chemistry and represents and warrants to the
 licensee that it is not a competitor of Gaussian, Inc. and that
 it will not use this program in any manner prohibited above.
 ---------------------------------------------------------------
  

 Cite this work as:
 Gaussian 16, Revision A.03,
 M. J. Frisch, G. W. Trucks, H. B. Schlegel, G. E. Scuseria, 
 M. A. Robb, J. R. Cheeseman, G. Scalmani, V. Barone, 
 G. A. Petersson, H. Nakatsuji, X. Li, M. Caricato, A. V. Marenich, 
 J. Bloino, B. G. Janesko, R. Gomperts, B. Mennucci, H. P. Hratchian, 
 J. V. Ortiz, A. F. Izmaylov, J. L. Sonnenberg, D. Williams-Young, 
 F. Ding, F. Lipparini, F. Egidi, J. Goings, B. Peng, A. Petrone, 
 T. Henderson, D. Ranasinghe, V. G. Zakrzewski, J. Gao, N. Rega, 
 G. Zheng, W. Liang, M. Hada, M. Ehara, K. Toyota, R. Fukuda, 
 J. Hasegawa, M. Ishida, T. Nakajima, Y. Honda, O. Kitao, H. Nakai, 
 T. Vreven, K. Throssell, J. A. Montgomery, Jr., J. E. Peralta, 
 F. Ogliaro, M. J. Bearpark, J. J. Heyd, E. N. Brothers, K. N. Kudin, 
 V. N. Staroverov, T. A. Keith, R. Kobayashi, J. Normand, 
 K. Raghavachari, A. P. Rendell, J. C. Burant, S. S. Iyengar, 
 J. Tomasi, M. Cossi, J. M. Millam, M. Klene, C. Adamo, R. Cammi, 
 J. W. Ochterski, R. L. Martin, K. Morokuma, O. Farkas, 
 J. B. Foresman, and D. J. Fox, Gaussian, Inc., Wallingford CT, 2016.
 
 ******************************************
 Gaussian 16:  ES64L-G16RevA.03 25-Dec-2016
                17-Apr-2021 
 ******************************************
 %RWF=temp10_99960,70GB
 %nprocshared=48
 Will use up to   48 processors via shared memory.
 Default route: MaxDisk=80GB
 ----------------------------------------------------------------------
 #P M062X/GEN Integral=UltraFineGrid SCF=NoSymm Stable=(RExt, Opt) IOp(
 1/33=1)
 ----------------------------------------------------------------------
 1/33=1,38=1,172=1/1;
 2/12=2,17=6,18=5,40=1/2;
 3/5=7,11=2,25=1,30=1,74=-55,75=-5/1,2,3;
 4/9=2/1;
 5/5=2,38=5/2;
 6/7=2,8=2,9=2,10=2,28=1/1;
 8/6=1,10=90,11=11/1;
 9/8=-3,42=1,46=1/14;
 5/5=2,8=3,17=40,38=5/8(-2);
 6/7=2,8=2,9=2,10=2,28=1/1;
 99/5=1,9=1/99;
 Leave Link    1 at Sat Apr 17 13:14:30 2021, MaxMem=           0 cpu:               8.2 elap:               0.2
 (Enter /s/ls4/users/knvvv/bin/g16sse/l101.exe)
 ONIOM data not found on unit 2.
 ----------------------
 Database calculations.
 ----------------------
 TstMul:  ICh=     0
 TstMul:  Mul=     1
 TstMul:  ICh=     0
 TstMul:  Mul=     1
 Symbolic Z-matrix:
 Charge =  0 Multiplicity = 1
 O                    -0.68256   1.94807   0.23951 
 H                    -1.22511   1.13445   0.1905 
 H                     0.2177    1.61696   0.48871 
 
 RdStrC is calling ZToCFu for IStruc=1 NZ=     3.
 PrtBox:  NBox=     1 Levels=  1 BoxLen=    8.00 SMaxX=        2.73
          Shift=            2.315117           -2.143809           -0.359998
 Box      1 Number                   0 centers from      1 to      3:
 After GenITR:
 ITRead=  0  0  0
 MicOpt= -1 -1 -1
 ITRead=  0  0  0
 MicOpt= -1 -1 -1
 NAtoms=      3 NQM=        3 NQMF=       0 NMMI=      0 NMMIF=      0
                NMic=       0 NMicF=      0.
                    Isotopes and Nuclear Properties:
 (Nuclear quadrupole moments (NQMom) in fm**2, nuclear magnetic moments (NMagM)
  in nuclear magnetons)

  Atom         1           2           3
 IAtWgt=          16           1           1
 AtmWgt=  15.9949146   1.0078250   1.0078250
 NucSpn=           0           1           1
 AtZEff=  -0.0000000  -0.0000000  -0.0000000
 NQMom=    0.0000000   0.0000000   0.0000000
 NMagM=    0.0000000   2.7928460   2.7928460
 AtZNuc=   8.0000000   1.0000000   1.0000000
 No MM parameters found.
 Leave Link  101 at Sat Apr 17 13:14:30 2021, MaxMem=   104857600 cpu:               8.1 elap:               0.2
 (Enter /s/ls4/users/knvvv/bin/g16sse/l202.exe)
                          Input orientation:                          
 ---------------------------------------------------------------------
 Center     Atomic      Atomic             Coordinates (Angstroms)
 Number     Number       Type             X           Y           Z
 ---------------------------------------------------------------------
      1          8           0       -0.682556    1.948072    0.239512
      2          1           0       -1.225107    1.134455    0.190503
      3          1           0        0.217701    1.616960    0.488707
 ---------------------------------------------------------------------
                    Distance matrix (angstroms):
                    1          2          3
     1  O    0.000000
     2  H    0.979151   0.000000
     3  H    0.991058   1.550300   0.000000
 Stoichiometry    H2O
 Framework group  CS[SG(H2O)]
 Deg. of freedom     3
 Full point group                 CS      NOp   2
 Largest Abelian subgroup         CS      NOp   2
 Largest concise Abelian subgroup C1      NOp   1
                         Standard orientation:                         
 ---------------------------------------------------------------------
 Center     Atomic      Atomic             Coordinates (Angstroms)
 Number     Number       Type             X           Y           Z
 ---------------------------------------------------------------------
      1          8           0        0.000000    0.121591   -0.000000
      2          1           0        0.775090   -0.476716   -0.000000
      3          1           0       -0.775090   -0.496010    0.000000
 ---------------------------------------------------------------------
 Rotational constants (GHZ):         764.1070020         417.2048304         269.8602718
 Leave Link  202 at Sat Apr 17 13:14:30 2021, MaxMem=   104857600 cpu:               7.7 elap:               0.2
 (Enter /s/ls4/users/knvvv/bin/g16sse/l301.exe)
 General basis read from cards:  (5D, 7F)
 Centers:       2      3
 S 4 1.00
     Exponent=  1.9069169000D+02 Coefficients=  7.0815167000D-04
     Exponent=  2.8605532000D+01 Coefficients=  5.4678827000D-03
     Exponent=  6.5095943000D+00 Coefficients=  2.7966605000D-02
     Exponent=  1.8412455000D+00 Coefficients=  1.0764538000D-01
 S 1 1.00
     Exponent=  5.9853725000D-01 Coefficients=  1.0000000000D+00
 S 1 1.00
     Exponent=  2.1397624000D-01 Coefficients=  1.0000000000D+00
 S 1 1.00
     Exponent=  8.0316286000D-02 Coefficients=  1.0000000000D+00
 P 1 1.00
     Exponent=  2.2920000000D+00 Coefficients=  1.0000000000D+00
 P 1 1.00
     Exponent=  8.3800000000D-01 Coefficients=  1.0000000000D+00
 P 1 1.00
     Exponent=  2.9200000000D-01 Coefficients=  1.0000000000D+00
 P 1 1.00
     Exponent=  8.4063199228D-02 Coefficients=  1.0000000000D+00
 D 1 1.00
     Exponent=  2.0620000000D+00 Coefficients=  1.0000000000D+00
 D 1 1.00
     Exponent=  6.6200000000D-01 Coefficients=  1.0000000000D+00
 F 1 1.00
     Exponent=  1.3970000000D+00 Coefficients=  1.0000000000D+00
 ****
 Centers:       1
 S 8 1.00
     Exponent=  1.1650646908D+05 Coefficients=  4.0383857939D-05
     Exponent=  1.7504349724D+04 Coefficients=  3.1255139004D-04
     Exponent=  3.9934513230D+03 Coefficients=  1.6341473495D-03
     Exponent=  1.1330063186D+03 Coefficients=  6.8283224757D-03
     Exponent=  3.6999569594D+02 Coefficients=  2.4124410221D-02
     Exponent=  1.3362074349D+02 Coefficients=  7.2730206154D-02
     Exponent=  5.2035643649D+01 Coefficients=  1.7934429892D-01
     Exponent=  2.1461939313D+01 Coefficients=  3.3059588895D-01
 S 2 1.00
     Exponent=  8.9835051252D+01 Coefficients=  9.6468652996D-02
     Exponent=  2.6428010844D+01 Coefficients=  9.4117481120D-01
 S 1 1.00
     Exponent=  9.2822824649D+00 Coefficients=  1.0000000000D+00
 S 1 1.00
     Exponent=  4.0947728533D+00 Coefficients=  1.0000000000D+00
 S 1 1.00
     Exponent=  1.3255349078D+00 Coefficients=  1.0000000000D+00
 S 1 1.00
     Exponent=  5.1877230787D-01 Coefficients=  1.0000000000D+00
 S 1 1.00
     Exponent=  1.9772676454D-01 Coefficients=  1.0000000000D+00
 S 1 1.00
     Exponent=  6.9638535104D-02 Coefficients=  1.0000000000D+00
 P 5 1.00
     Exponent=  1.9115255810D+02 Coefficients=  2.5115697705D-03
     Exponent=  4.5233356739D+01 Coefficients=  2.0039240864D-02
     Exponent=  1.4353465922D+01 Coefficients=  9.3609064762D-02
     Exponent=  5.2422371832D+00 Coefficients=  3.0618127124D-01
     Exponent=  2.0792418599D+00 Coefficients=  6.7810501439D-01
 P 1 1.00
     Exponent=  8.4282371424D-01 Coefficients=  1.0000000000D+00
 P 1 1.00
     Exponent=  3.3617694891D-01 Coefficients=  1.0000000000D+00
 P 1 1.00
     Exponent=  1.2863997974D-01 Coefficients=  1.0000000000D+00
 P 1 1.00
     Exponent=  4.3598162776D-02 Coefficients=  1.0000000000D+00
 D 1 1.00
     Exponent=  3.7750000000D+00 Coefficients=  1.0000000000D+00
 D 1 1.00
     Exponent=  1.3000000000D+00 Coefficients=  1.0000000000D+00
 D 1 1.00
     Exponent=  4.4400000000D-01 Coefficients=  1.0000000000D+00
 D 1 1.00
     Exponent=  1.2546378695D-01 Coefficients=  1.0000000000D+00
 F 1 1.00
     Exponent=  2.6660000000D+00 Coefficients=  1.0000000000D+00
 F 1 1.00
     Exponent=  8.5900000000D-01 Coefficients=  1.0000000000D+00
 G 1 1.00
     Exponent=  1.8460000000D+00 Coefficients=  1.0000000000D+00
 ****
 Ernie: Thresh=  0.10000D-02 Tol=  0.10000D-05 Strict=F.
 There are   107 symmetry adapted cartesian basis functions of A'  symmetry.
 There are    51 symmetry adapted cartesian basis functions of A"  symmetry.
 There are    87 symmetry adapted basis functions of A'  symmetry.
 There are    45 symmetry adapted basis functions of A"  symmetry.
   132 basis functions,   184 primitive gaussians,   158 cartesian basis functions
     5 alpha electrons        5 beta electrons
       nuclear repulsion energy         8.9365138249 Hartrees.
 IExCor= 4336 DFT=T Ex+Corr=M062X ExCW=0 ScaHFX=  0.540000
 ScaDFX=  1.000000  1.000000  1.000000  1.000000 ScalE2=  1.000000  1.000000
 IRadAn=      5 IRanWt=     -1 IRanGd=            0 ICorTp=0 IEmpDi=  4
 NAtoms=    3 NActive=    3 NUniq=    3 SFac= 1.00D+00 NAtFMM=   60 NAOKFM=F Big=F
 Integral buffers will be    131072 words long.
 Raffenetti 2 integral format.
 Two-electron integral symmetry is turned on.
 Leave Link  301 at Sat Apr 17 13:14:31 2021, MaxMem=   104857600 cpu:               6.9 elap:               0.2
 (Enter /s/ls4/users/knvvv/bin/g16sse/l302.exe)
 NPDir=0 NMtPBC=     1 NCelOv=     1 NCel=       1 NClECP=     1 NCelD=      1
         NCelK=      1 NCelE2=     1 NClLst=     1 CellRange=     0.0.
 One-electron integrals computed using PRISM.
 One-electron integral symmetry used in STVInt
 PrsmSu:  requested number of processors reduced to:   4 ShMem   1 Linda.
 PrsmSu:  requested number of processors reduced to:  21 ShMem   1 Linda.
 NBasis=   132 RedAO= T EigKep=  1.58D-04  NBF=    87    45
 NBsUse=   132 1.00D-06 EigRej= -1.00D+00 NBFU=    87    45
 Precomputing XC quadrature grid using
 IXCGrd= 4 IRadAn=           5 IRanWt=          -1 IRanGd=           0 AccXCQ= 0.00D+00.
 Generated NRdTot=       0 NPtTot=           0 NUsed=           0 NTot=          32
 NSgBfM=   158   158   158   158   158 MxSgAt=     3 MxSgA2=     3.
 Leave Link  302 at Sat Apr 17 13:14:33 2021, MaxMem=   104857600 cpu:             103.6 elap:               2.3
 (Enter /s/ls4/users/knvvv/bin/g16sse/l303.exe)
 DipDrv:  MaxL=1.
 Leave Link  303 at Sat Apr 17 13:14:34 2021, MaxMem=   104857600 cpu:              26.7 elap:               0.6
 (Enter /s/ls4/users/knvvv/bin/g16sse/l401.exe)
 SCF N**3 symmetry information disabled.
 ExpMin= 4.36D-02 ExpMax= 1.17D+05 ExpMxC= 1.13D+03 IAcc=3 IRadAn=         5 AccDes= 0.00D+00
 Harris functional with IExCor= 1009 and IRadAn=       5 diagonalized for initial guess.
 HarFok:  IExCor= 1009 AccDes= 0.00D+00 IRadAn=         5 IDoV= 1 UseB2=F ITyADJ=14
 ICtDFT=  3500011 ScaDFX=  1.000000  1.000000  1.000000  1.000000
 FoFCou: FMM=F IPFlag=           0 FMFlag=      100000 FMFlg1=           0
         NFxFlg=           0 DoJE=T BraDBF=F KetDBF=T FulRan=T
         wScrn=  0.000000 ICntrl=       500 IOpCl=  0 I1Cent=   200000004 NGrid=           0
         NMat0=    1 NMatS0=      1 NMatT0=    0 NMatD0=    1 NMtDS0=    0 NMtDT0=    0
 Petite list used in FoFCou.
 CoulSu:  requested number of processors reduced to:  21 ShMem   1 Linda.
 CoulSu:  requested number of processors reduced to:  21 ShMem   1 Linda.
 CoulSu:  requested number of processors reduced to:  21 ShMem   1 Linda.
 CoulSu:  requested number of processors reduced to:  21 ShMem   1 Linda.
 Harris En= -76.4289897347560    
 JPrj=0 DoOrth=F DoCkMO=F.
 Initial guess orbital symmetries:
       Occupied  (A') (A') (A') (A') (A")
       Virtual   (A') (A') (A') (A") (A') (A') (A') (A") (A") (A')
                 (A') (A') (A') (A') (A") (A') (A") (A') (A") (A')
                 (A') (A') (A") (A") (A') (A') (A') (A') (A') (A')
                 (A") (A') (A") (A') (A') (A") (A') (A") (A') (A')
                 (A') (A') (A") (A') (A") (A") (A') (A') (A") (A")
                 (A') (A') (A') (A') (A') (A') (A") (A") (A') (A")
                 (A') (A') (A") (A') (A') (A") (A') (A') (A") (A')
                 (A') (A") (A') (A") (A') (A") (A') (A') (A") (A')
                 (A') (A") (A') (A") (A') (A') (A') (A") (A") (A')
                 (A") (A') (A") (A') (A') (A') (A") (A") (A') (A')
                 (A') (A") (A') (A') (A") (A') (A') (A") (A') (A")
                 (A") (A') (A") (A') (A") (A') (A') (A') (A') (A")
                 (A') (A") (A') (A') (A') (A') (A')
 The electronic state of the initial guess is 1-A'.
 Leave Link  401 at Sat Apr 17 13:14:34 2021, MaxMem=   104857600 cpu:              18.4 elap:               0.6
 (Enter /s/ls4/users/knvvv/bin/g16sse/l502.exe)
 Keep R1 ints in memory in symmetry-blocked form, NReq=92806727.
 FoFCou: FMM=F IPFlag=           0 FMFlag=           0 FMFlg1=           0
         NFxFlg=           0 DoJE=F BraDBF=F KetDBF=F FulRan=T
         wScrn=  0.000000 ICntrl=       600 IOpCl=  0 I1Cent=           0 NGrid=           0
         NMat0=    1 NMatS0=   8778 NMatT0=    0 NMatD0=    1 NMtDS0=    0 NMtDT0=    0
 Petite list used in FoFCou.
 CoulSu:  requested number of processors reduced to:  14 ShMem   1 Linda.
 Closed shell SCF:
 Using DIIS extrapolation, IDIIS=  1040.
 NGot=   104857600 LenX=    85286723 LenY=    85261318
 Requested convergence on RMS density matrix=1.00D-08 within 128 cycles.
 Requested convergence on MAX density matrix=1.00D-06.
 Requested convergence on             energy=1.00D-06.
 No special actions if energy rises.

 Cycle   1  Pass 1  IDiag  1:
 E= -76.3589158672413    
 DIIS: error= 4.34D-02 at cycle   1 NSaved=   1.
 NSaved= 1 IEnMin= 1 EnMin= -76.3589158672413     IErMin= 1 ErrMin= 4.34D-02
 ErrMax= 4.34D-02  0.00D+00 EMaxC= 1.00D-01 BMatC= 1.40D-01 BMatP= 1.40D-01
 IDIUse=3 WtCom= 5.66D-01 WtEn= 4.34D-01
 Coeff-Com:  0.100D+01
 Coeff-En:   0.100D+01
 Coeff:      0.100D+01
 Gap=     0.274 Goal=   None    Shift=    0.000
 GapD=    0.274 DampG=1.000 DampE=0.500 DampFc=0.5000 IDamp=-1.
 Damping current iteration by 5.00D-01
 RMSDP=1.88D-03 MaxDP=6.68D-02              OVMax= 1.73D-01

 Cycle   2  Pass 1  IDiag  1:
 E= -76.3897992589190     Delta-E=       -0.030883391678 Rises=F Damp=T
 DIIS: error= 2.17D-02 at cycle   2 NSaved=   2.
 NSaved= 2 IEnMin= 2 EnMin= -76.3897992589190     IErMin= 2 ErrMin= 2.17D-02
 ErrMax= 2.17D-02  0.00D+00 EMaxC= 1.00D-01 BMatC= 1.39D-02 BMatP= 1.40D-01
 IDIUse=3 WtCom= 7.83D-01 WtEn= 2.17D-01
 Coeff-Com:  0.682D-01 0.932D+00
 Coeff-En:   0.205D+00 0.795D+00
 Coeff:      0.979D-01 0.902D+00
 Gap=     0.409 Goal=   None    Shift=    0.000
 RMSDP=6.25D-04 MaxDP=1.29D-02 DE=-3.09D-02 OVMax= 1.04D-01

 Cycle   3  Pass 1  IDiag  1:
 E= -76.4352463153280     Delta-E=       -0.045447056409 Rises=F Damp=F
 DIIS: error= 2.01D-03 at cycle   3 NSaved=   3.
 NSaved= 3 IEnMin= 3 EnMin= -76.4352463153280     IErMin= 3 ErrMin= 2.01D-03
 ErrMax= 2.01D-03  0.00D+00 EMaxC= 1.00D-01 BMatC= 2.44D-04 BMatP= 1.39D-02
 IDIUse=3 WtCom= 9.80D-01 WtEn= 2.01D-02
 Coeff-Com: -0.339D-01 0.642D-01 0.970D+00
 Coeff-En:   0.000D+00 0.000D+00 0.100D+01
 Coeff:     -0.332D-01 0.629D-01 0.970D+00
 Gap=     0.410 Goal=   None    Shift=    0.000
 RMSDP=6.95D-05 MaxDP=2.68D-03 DE=-4.54D-02 OVMax= 4.33D-03

 Cycle   4  Pass 1  IDiag  1:
 E= -76.4354191116516     Delta-E=       -0.000172796324 Rises=F Damp=F
 DIIS: error= 2.09D-04 at cycle   4 NSaved=   4.
 NSaved= 4 IEnMin= 4 EnMin= -76.4354191116516     IErMin= 4 ErrMin= 2.09D-04
 ErrMax= 2.09D-04  0.00D+00 EMaxC= 1.00D-01 BMatC= 3.27D-06 BMatP= 2.44D-04
 IDIUse=3 WtCom= 9.98D-01 WtEn= 2.09D-03
 Coeff-Com: -0.829D-03 0.563D-03 0.759D-01 0.924D+00
 Coeff-En:   0.000D+00 0.000D+00 0.000D+00 0.100D+01
 Coeff:     -0.827D-03 0.562D-03 0.757D-01 0.925D+00
 Gap=     0.411 Goal=   None    Shift=    0.000
 RMSDP=2.18D-05 MaxDP=5.31D-04 DE=-1.73D-04 OVMax= 6.41D-04

 Cycle   5  Pass 1  IDiag  1:
 E= -76.4354211105493     Delta-E=       -0.000001998898 Rises=F Damp=F
 DIIS: error= 5.81D-05 at cycle   5 NSaved=   5.
 NSaved= 5 IEnMin= 5 EnMin= -76.4354211105493     IErMin= 5 ErrMin= 5.81D-05
 ErrMax= 5.81D-05  0.00D+00 EMaxC= 1.00D-01 BMatC= 1.01D-07 BMatP= 3.27D-06
 IDIUse=1 WtCom= 1.00D+00 WtEn= 0.00D+00
 Coeff-Com:  0.157D-02-0.280D-02-0.352D-01 0.182D-01 0.102D+01
 Coeff:      0.157D-02-0.280D-02-0.352D-01 0.182D-01 0.102D+01
 Gap=     0.411 Goal=   None    Shift=    0.000
 RMSDP=5.29D-06 MaxDP=1.32D-04 DE=-2.00D-06 OVMax= 2.20D-04

 Cycle   6  Pass 1  IDiag  1:
 E= -76.4354212606006     Delta-E=       -0.000000150051 Rises=F Damp=F
 DIIS: error= 8.02D-06 at cycle   6 NSaved=   6.
 NSaved= 6 IEnMin= 6 EnMin= -76.4354212606006     IErMin= 6 ErrMin= 8.02D-06
 ErrMax= 8.02D-06  0.00D+00 EMaxC= 1.00D-01 BMatC= 3.17D-09 BMatP= 1.01D-07
 IDIUse=1 WtCom= 1.00D+00 WtEn= 0.00D+00
 Coeff-Com: -0.163D-03 0.238D-03 0.126D-02-0.240D-01-0.280D-01 0.105D+01
 Coeff:     -0.163D-03 0.238D-03 0.126D-02-0.240D-01-0.280D-01 0.105D+01
 Gap=     0.411 Goal=   None    Shift=    0.000
 RMSDP=5.75D-07 MaxDP=2.38D-05 DE=-1.50D-07 OVMax= 3.92D-05

 Cycle   7  Pass 1  IDiag  1:
 E= -76.4354212661536     Delta-E=       -0.000000005553 Rises=F Damp=F
 DIIS: error= 1.61D-06 at cycle   7 NSaved=   7.
 NSaved= 7 IEnMin= 7 EnMin= -76.4354212661536     IErMin= 7 ErrMin= 1.61D-06
 ErrMax= 1.61D-06  0.00D+00 EMaxC= 1.00D-01 BMatC= 9.66D-11 BMatP= 3.17D-09
 IDIUse=1 WtCom= 1.00D+00 WtEn= 0.00D+00
 Coeff-Com: -0.251D-04 0.620D-04 0.452D-03 0.780D-03-0.266D-01-0.897D-01
 Coeff-Com:  0.112D+01
 Coeff:     -0.251D-04 0.620D-04 0.452D-03 0.780D-03-0.266D-01-0.897D-01
 Coeff:      0.112D+01
 Gap=     0.411 Goal=   None    Shift=    0.000
 RMSDP=1.28D-07 MaxDP=5.02D-06 DE=-5.55D-09 OVMax= 1.00D-05

 Cycle   8  Pass 1  IDiag  1:
 E= -76.4354212663940     Delta-E=       -0.000000000240 Rises=F Damp=F
 DIIS: error= 2.31D-07 at cycle   8 NSaved=   8.
 NSaved= 8 IEnMin= 8 EnMin= -76.4354212663940     IErMin= 8 ErrMin= 2.31D-07
 ErrMax= 2.31D-07  0.00D+00 EMaxC= 1.00D-01 BMatC= 1.74D-12 BMatP= 9.66D-11
 IDIUse=1 WtCom= 1.00D+00 WtEn= 0.00D+00
 Coeff-Com:  0.567D-05-0.995D-05-0.384D-04 0.279D-03 0.258D-02-0.431D-02
 Coeff-Com: -0.139D+00 0.114D+01
 Coeff:      0.567D-05-0.995D-05-0.384D-04 0.279D-03 0.258D-02-0.431D-02
 Coeff:     -0.139D+00 0.114D+01
 Gap=     0.411 Goal=   None    Shift=    0.000
 RMSDP=1.36D-08 MaxDP=3.55D-07 DE=-2.40D-10 OVMax= 1.33D-06

 Cycle   9  Pass 1  IDiag  1:
 E= -76.4354212663976     Delta-E=       -0.000000000004 Rises=F Damp=F
 DIIS: error= 3.92D-08 at cycle   9 NSaved=   9.
 NSaved= 9 IEnMin= 9 EnMin= -76.4354212663976     IErMin= 9 ErrMin= 3.92D-08
 ErrMax= 3.92D-08  0.00D+00 EMaxC= 1.00D-01 BMatC= 9.80D-14 BMatP= 1.74D-12
 IDIUse=1 WtCom= 1.00D+00 WtEn= 0.00D+00
 Coeff-Com:  0.188D-05-0.378D-05-0.160D-04 0.796D-04 0.980D-03 0.242D-03
 Coeff-Com: -0.445D-01 0.185D+00 0.858D+00
 Coeff:      0.188D-05-0.378D-05-0.160D-04 0.796D-04 0.980D-03 0.242D-03
 Coeff:     -0.445D-01 0.185D+00 0.858D+00
 Gap=     0.411 Goal=   None    Shift=    0.000
 RMSDP=2.31D-09 MaxDP=6.46D-08 DE=-3.61D-12 OVMax= 1.33D-07

 SCF Done:  E(RM062X) =  -76.4354212664     A.U. after    9 cycles
            NFock=  9  Conv=0.23D-08     -V/T= 2.0044
 KE= 7.610028817441D+01 PE=-1.986783939491D+02 EE= 3.720617068335D+01
 Leave Link  502 at Sat Apr 17 13:14:58 2021, MaxMem=   104857600 cpu:            1080.2 elap:              23.5
 (Enter /s/ls4/users/knvvv/bin/g16sse/l601.exe)
 Copying SCF densities to generalized density rwf, IOpCl= 0 IROHF=0.

 **********************************************************************

            Population analysis using the SCF density.

 **********************************************************************

 Orbital symmetries:
       Occupied  (A') (A') (A') (A') (A")
       Virtual   (A') (A') (A') (A") (A') (A') (A") (A') (A") (A')
                 (A') (A') (A') (A') (A") (A') (A") (A') (A") (A')
                 (A') (A') (A") (A") (A') (A') (A') (A') (A') (A')
                 (A') (A") (A") (A') (A') (A") (A') (A") (A') (A')
                 (A') (A") (A') (A') (A") (A") (A') (A') (A") (A')
                 (A") (A') (A') (A') (A') (A') (A") (A') (A") (A")
                 (A') (A') (A") (A') (A') (A") (A') (A') (A") (A')
                 (A') (A") (A') (A") (A') (A") (A') (A') (A") (A')
                 (A') (A") (A') (A") (A') (A') (A') (A") (A") (A')
                 (A') (A") (A") (A') (A') (A') (A") (A') (A") (A')
                 (A') (A") (A') (A') (A") (A') (A') (A") (A') (A")
                 (A") (A') (A') (A") (A') (A") (A') (A') (A') (A")
                 (A') (A") (A') (A') (A') (A') (A')
 The electronic state is 1-A'.
 Alpha  occ. eigenvalues --  -19.63317  -1.12603  -0.59841  -0.47546  -0.40157
 Alpha virt. eigenvalues --    0.00907   0.04154   0.06344   0.06416   0.13157
 Alpha virt. eigenvalues --    0.14772   0.17165   0.18602   0.19356   0.23228
 Alpha virt. eigenvalues --    0.25242   0.27556   0.34827   0.36629   0.40285
 Alpha virt. eigenvalues --    0.44436   0.45932   0.46175   0.50971   0.52239
 Alpha virt. eigenvalues --    0.54317   0.65400   0.76718   0.80990   0.83071
 Alpha virt. eigenvalues --    0.94174   1.00467   1.04007   1.10120   1.14115
 Alpha virt. eigenvalues --    1.32628   1.38729   1.44122   1.46156   1.50416
 Alpha virt. eigenvalues --    1.59988   1.62996   1.88375   1.94178   2.00839
 Alpha virt. eigenvalues --    2.02148   2.23674   2.24867   2.43501   2.43738
 Alpha virt. eigenvalues --    2.45015   2.54492   2.60191   2.63568   2.67431
 Alpha virt. eigenvalues --    2.67560   2.88453   3.09007   3.20736   3.25117
 Alpha virt. eigenvalues --    3.39828   3.66297   3.89001   3.91862   3.95134
 Alpha virt. eigenvalues --    4.06038   4.13405   4.22525   4.24031   4.39050
 Alpha virt. eigenvalues --    4.50152   4.72927   4.75624   5.24794   5.27471
 Alpha virt. eigenvalues --    5.37946   5.60258   5.77959   5.82668   5.91025
 Alpha virt. eigenvalues --    6.23730   6.35989   6.58824   6.85864   6.97099
 Alpha virt. eigenvalues --    7.05247   7.13559   7.19347   7.22977   7.25485
 Alpha virt. eigenvalues --    7.29652   7.52598   7.53177   7.65925   7.68305
 Alpha virt. eigenvalues --    7.69508   7.72451   7.82104   7.97081   8.11587
 Alpha virt. eigenvalues --    8.29889   8.33980   8.49042   8.51473   8.72697
 Alpha virt. eigenvalues --    8.86157   9.62360   9.68039  10.02645  10.06802
 Alpha virt. eigenvalues --   10.43976  10.48649  10.72197  10.82274  10.97222
 Alpha virt. eigenvalues --   11.14863  11.24964  11.45541  11.46246  11.61048
 Alpha virt. eigenvalues --   11.61702  12.05762  12.46158  13.04530  13.28460
 Alpha virt. eigenvalues --   13.39257  13.67665  14.13216  16.08847  16.30084
 Alpha virt. eigenvalues --   48.22852 251.28793
          Condensed to atoms (all electrons):
               1          2          3
     1  O    8.160353   0.272766   0.274588
     2  H    0.272766   0.389322  -0.018374
     3  H    0.274588  -0.018374   0.392366
 Mulliken charges:
               1
     1  O   -0.707706
     2  H    0.356286
     3  H    0.351421
 Sum of Mulliken charges =  -0.00000
 Mulliken charges with hydrogens summed into heavy atoms:
               1
     1  O   -0.000000
 Electronic spatial extent (au):  <R**2>=             20.1640
 Charge=             -0.0000 electrons
 Dipole moment (field-independent basis, Debye):
    X=              0.0048    Y=             -1.9269    Z=              0.0000  Tot=              1.9269
 Quadrupole moment (field-independent basis, Debye-Ang):
   XX=             -4.3751   YY=             -6.3750   ZZ=             -7.7586
   XY=              0.0322   XZ=             -0.0000   YZ=             -0.0000
 Traceless Quadrupole moment (field-independent basis, Debye-Ang):
   XX=              1.7945   YY=             -0.2054   ZZ=             -1.5891
   XY=              0.0322   XZ=             -0.0000   YZ=             -0.0000
 Octapole moment (field-independent basis, Debye-Ang**2):
  XXX=              0.0168  YYY=             -1.0115  ZZZ=              0.0000  XYY=             -0.0241
  XXY=             -1.4088  XXZ=              0.0000  XZZ=              0.0061  YZZ=             -0.2044
  YYZ=              0.0000  XYZ=              0.0000
 Hexadecapole moment (field-independent basis, Debye-Ang**3):
 XXXX=             -6.6134 YYYY=             -7.8978 ZZZZ=             -7.3736 XXXY=             -0.0024
 XXXZ=             -0.0000 YYYX=              0.0003 YYYZ=             -0.0000 ZZZX=             -0.0000
 ZZZY=             -0.0000 XXYY=             -2.0484 XXZZ=             -2.6821 YYZZ=             -2.6021
 XXYZ=             -0.0000 YYXZ=             -0.0000 ZZXY=             -0.0090
 N-N= 8.936513824931D+00 E-N=-1.986783946482D+02  KE= 7.610028817441D+01
 PrsmSu:  requested number of processors reduced to:  21 ShMem   1 Linda.
 No NMR shielding tensors so no spin-rotation constants.
 Leave Link  601 at Sat Apr 17 13:14:59 2021, MaxMem=   104857600 cpu:              50.3 elap:               1.2
 (Enter /s/ls4/users/knvvv/bin/g16sse/l801.exe)
 DoSCS=F DFT=T ScalE2(SS,OS)=  1.000000  1.000000
 Range of M.O.s used for correlation:     1   132
 NBasis=   132 NAE=     5 NBE=     5 NFC=     0 NFV=     0
 NROrb=    132 NOA=     5 NOB=     5 NVA=   127 NVB=   127

 **** Warning!!: The largest alpha MO coefficient is  0.25227055D+02

 Leave Link  801 at Sat Apr 17 13:14:59 2021, MaxMem=   104857600 cpu:               3.1 elap:               0.1
 (Enter /s/ls4/users/knvvv/bin/g16sse/l914.exe)
 RHF ground state
 Doing stability rather than CIS.
 Two-electron integrals replicated using symmetry.
 MDV=   104857600 DFT=T DoStab=T Mixed=T DoRPA=F DoScal=F NonHer=F
 Making orbital integer symmetry assigments:
 Orbital symmetries:
       Occupied  (A') (A') (A') (A') (A")
       Virtual   (A') (A') (A') (A") (A') (A') (A") (A') (A") (A')
                 (A') (A') (A') (A') (A") (A') (A") (A') (A") (A')
                 (A') (A') (A") (A") (A') (A') (A') (A') (A') (A')
                 (A') (A") (A") (A') (A') (A") (A') (A") (A') (A')
                 (A') (A") (A') (A') (A") (A") (A') (A') (A") (A')
                 (A") (A') (A') (A') (A') (A') (A") (A') (A") (A")
                 (A') (A') (A") (A') (A') (A") (A') (A') (A") (A')
                 (A') (A") (A') (A") (A') (A") (A') (A') (A") (A')
                 (A') (A") (A') (A") (A') (A') (A') (A") (A") (A')
                 (A') (A") (A") (A') (A') (A') (A") (A') (A") (A')
                 (A') (A") (A') (A') (A") (A') (A') (A") (A') (A")
                 (A") (A') (A') (A") (A') (A") (A') (A') (A') (A")
                 (A') (A") (A') (A') (A') (A') (A')
    24 initial guesses have been made.
 Convergence on wavefunction:    0.001000000000000
 Davidson Disk Diagonalization:  ConvIn= 1.00D-03 SkipCon=T Conv= 1.00D-03.
 Max sub-space:  2000 roots to seek:    24 dimension of matrix:         1270
 Iteration     1 Dimension    24 NMult     0 NNew     24
 Estimated number of processors is:   20
 CISAX will form     1 AO SS matrices at one time.
 NMat=     1 NSing=     1 JSym2X= 2.
 FoFJK:  IHMeth= 1 ICntrl=       0 DoSepK=F KAlg= 0 I1Cent=           0 FoldK=F
 IRaf= 990000000 NMat=       1 IRICut=       1 DoRegI=T DoRafI=F ISym2E= 2 IDoP0=0 IntGTp=1.
 FoFCou: FMM=F IPFlag=           0 FMFlag=      100000 FMFlg1=           0
         NFxFlg=           0 DoJE=F BraDBF=F KetDBF=F FulRan=T
         wScrn=  0.000000 ICntrl=         0 IOpCl=  0 I1Cent=           0 NGrid=           0
         NMat0=    1 NMatS0=      1 NMatT0=    0 NMatD0=    1 NMtDS0=    0 NMtDT0=    0
 Integrals replicated using symmetry in FoFCou.
 CoulSu:  requested number of processors reduced to:  21 ShMem   1 Linda.
 NMat=     1 NSing=     1 JSym2X= 2.
 CoulSu:  requested number of processors reduced to:  21 ShMem   1 Linda.
 NMat=     1 NSing=     1 JSym2X= 2.
 CoulSu:  requested number of processors reduced to:  21 ShMem   1 Linda.
 NMat=     1 NSing=     1 JSym2X= 2.
 CoulSu:  requested number of processors reduced to:  21 ShMem   1 Linda.
 NMat=     1 NSing=     1 JSym2X= 2.
 CoulSu:  requested number of processors reduced to:  21 ShMem   1 Linda.
 NMat=     1 NSing=     1 JSym2X= 2.
 CoulSu:  requested number of processors reduced to:  21 ShMem   1 Linda.
 NMat=     1 NSing=     1 JSym2X= 2.
 CoulSu:  requested number of processors reduced to:  21 ShMem   1 Linda.
 NMat=     1 NSing=     1 JSym2X= 2.
 CoulSu:  requested number of processors reduced to:  21 ShMem   1 Linda.
 NMat=     1 NSing=     1 JSym2X= 2.
 CoulSu:  requested number of processors reduced to:  21 ShMem   1 Linda.
 NMat=     1 NSing=     1 JSym2X= 2.
 CoulSu:  requested number of processors reduced to:  21 ShMem   1 Linda.
 NMat=     1 NSing=     1 JSym2X= 2.
 CoulSu:  requested number of processors reduced to:  21 ShMem   1 Linda.
 NMat=     1 NSing=     1 JSym2X= 2.
 CoulSu:  requested number of processors reduced to:  21 ShMem   1 Linda.
 NMat=     1 NSing=     0 JSym2X= 2.
 CoulSu:  requested number of processors reduced to:  21 ShMem   1 Linda.
 NMat=     1 NSing=     0 JSym2X= 2.
 CoulSu:  requested number of processors reduced to:  21 ShMem   1 Linda.
 NMat=     1 NSing=     0 JSym2X= 2.
 CoulSu:  requested number of processors reduced to:  21 ShMem   1 Linda.
 NMat=     1 NSing=     0 JSym2X= 2.
 CoulSu:  requested number of processors reduced to:  21 ShMem   1 Linda.
 NMat=     1 NSing=     0 JSym2X= 2.
 CoulSu:  requested number of processors reduced to:  21 ShMem   1 Linda.
 NMat=     1 NSing=     0 JSym2X= 2.
 CoulSu:  requested number of processors reduced to:  21 ShMem   1 Linda.
 NMat=     1 NSing=     0 JSym2X= 2.
 CoulSu:  requested number of processors reduced to:  21 ShMem   1 Linda.
 NMat=     1 NSing=     0 JSym2X= 2.
 CoulSu:  requested number of processors reduced to:  21 ShMem   1 Linda.
 NMat=     1 NSing=     0 JSym2X= 2.
 CoulSu:  requested number of processors reduced to:  21 ShMem   1 Linda.
 NMat=     1 NSing=     0 JSym2X= 2.
 CoulSu:  requested number of processors reduced to:  21 ShMem   1 Linda.
 NMat=     1 NSing=     0 JSym2X= 2.
 CoulSu:  requested number of processors reduced to:  21 ShMem   1 Linda.
 NMat=     1 NSing=     0 JSym2X= 2.
 CoulSu:  requested number of processors reduced to:  21 ShMem   1 Linda.
 New state      1 was old state      2
 Excitation Energies [eV] at current iteration:
 Root      1 :     7.603924785378078
 Root      2 :     7.980363590071450
 Root      3 :     9.238568495917860
 Root      4 :     9.402753166222416
 Root      5 :     9.869908354921748
 Root      6 :    10.019823020611400
 Root      7 :    10.123916623574980
 Root      8 :    10.134988678618290
 Root      9 :    10.178778801122070
 Root     10 :    11.252607230410560
 Root     11 :    11.353103962440590
 Root     12 :    11.376777031825560
 Root     13 :    11.488883803919180
 Root     14 :    11.575404313921680
 Root     15 :    11.959168581867020
 Root     16 :    12.048398804928550
 Root     17 :    12.135587798903150
 Root     18 :    12.163554507439660
 Root     19 :    12.192442307634890
 Root     20 :    12.893320426137020
 Root     21 :    13.088060841962640
 Root     22 :    13.099239688383760
 Root     23 :    13.112544690898090
 Root     24 :    13.334019376131820
 Iteration     2 Dimension    48 NMult    24 NNew     24
 Estimated number of processors is:   20
 CISAX will form     1 AO SS matrices at one time.
 NMat=     1 NSing=     1 JSym2X= 2.
 CoulSu:  requested number of processors reduced to:  21 ShMem   1 Linda.
 NMat=     1 NSing=     1 JSym2X= 2.
 CoulSu:  requested number of processors reduced to:  21 ShMem   1 Linda.
 NMat=     1 NSing=     1 JSym2X= 2.
 CoulSu:  requested number of processors reduced to:  21 ShMem   1 Linda.
 NMat=     1 NSing=     1 JSym2X= 2.
 CoulSu:  requested number of processors reduced to:  21 ShMem   1 Linda.
 NMat=     1 NSing=     1 JSym2X= 2.
 CoulSu:  requested number of processors reduced to:  21 ShMem   1 Linda.
 NMat=     1 NSing=     1 JSym2X= 2.
 CoulSu:  requested number of processors reduced to:  21 ShMem   1 Linda.
 NMat=     1 NSing=     1 JSym2X= 2.
 CoulSu:  requested number of processors reduced to:  21 ShMem   1 Linda.
 NMat=     1 NSing=     1 JSym2X= 2.
 CoulSu:  requested number of processors reduced to:  21 ShMem   1 Linda.
 NMat=     1 NSing=     1 JSym2X= 2.
 CoulSu:  requested number of processors reduced to:  21 ShMem   1 Linda.
 NMat=     1 NSing=     1 JSym2X= 2.
 CoulSu:  requested number of processors reduced to:  21 ShMem   1 Linda.
 NMat=     1 NSing=     1 JSym2X= 2.
 CoulSu:  requested number of processors reduced to:  21 ShMem   1 Linda.
 NMat=     1 NSing=     1 JSym2X= 2.
 CoulSu:  requested number of processors reduced to:  21 ShMem   1 Linda.
 NMat=     1 NSing=     0 JSym2X= 2.
 CoulSu:  requested number of processors reduced to:  21 ShMem   1 Linda.
 NMat=     1 NSing=     0 JSym2X= 2.
 CoulSu:  requested number of processors reduced to:  21 ShMem   1 Linda.
 NMat=     1 NSing=     0 JSym2X= 2.
 CoulSu:  requested number of processors reduced to:  21 ShMem   1 Linda.
 NMat=     1 NSing=     0 JSym2X= 2.
 CoulSu:  requested number of processors reduced to:  21 ShMem   1 Linda.
 NMat=     1 NSing=     0 JSym2X= 2.
 CoulSu:  requested number of processors reduced to:  21 ShMem   1 Linda.
 NMat=     1 NSing=     0 JSym2X= 2.
 CoulSu:  requested number of processors reduced to:  21 ShMem   1 Linda.
 NMat=     1 NSing=     0 JSym2X= 2.
 CoulSu:  requested number of processors reduced to:  21 ShMem   1 Linda.
 NMat=     1 NSing=     0 JSym2X= 2.
 CoulSu:  requested number of processors reduced to:  21 ShMem   1 Linda.
 NMat=     1 NSing=     0 JSym2X= 2.
 CoulSu:  requested number of processors reduced to:  21 ShMem   1 Linda.
 NMat=     1 NSing=     0 JSym2X= 2.
 CoulSu:  requested number of processors reduced to:  21 ShMem   1 Linda.
 NMat=     1 NSing=     0 JSym2X= 2.
 CoulSu:  requested number of processors reduced to:  21 ShMem   1 Linda.
 NMat=     1 NSing=     0 JSym2X= 2.
 CoulSu:  requested number of processors reduced to:  21 ShMem   1 Linda.
 Root      1 not converged, maximum delta is    0.149369711797075
 Excitation Energies [eV] at current iteration:
 Root      1 :     6.992069317430562   Change is   -0.611855467947517
 Root      2 :     7.790492281016101   Change is   -0.189871309055349
 Root      3 :     8.736236097277519   Change is   -0.502332398640342
 Root      4 :     8.980881080779369   Change is   -0.889027274142379
 Root      5 :     9.125473739939975   Change is   -0.277279426282441
 Root      6 :     9.761307516326303   Change is   -0.362609107248675
 Root      7 :     9.845707484079337   Change is   -0.333071317042737
 Root      8 :     9.866552119037237   Change is   -0.153270901574167
 Root      9 :    10.051345132111490   Change is   -0.083643546506795
 Root     10 :    10.664102171581860   Change is   -0.588505058828704
 Root     11 :    10.729414810704050   Change is   -0.647362221121505
 Root     12 :    10.880883546074930   Change is   -0.472220416365657
 Root     13 :    11.193958733308520   Change is   -0.294925070610655
 Root     14 :    11.336681655487580   Change is   -0.238722658434104
 Root     15 :    11.721440121946960   Change is   -0.326958682981590
 Root     16 :    11.724021894625780   Change is   -0.235146687241241
 Root     17 :    11.928756190219940   Change is   -0.206831608683211
 Root     18 :    12.018966059416560   Change is   -0.173476248218330
 Root     19 :    12.047805141269680   Change is   -0.115749366169987
 Root     20 :    12.383345373958430   Change is   -0.715894314425338
 Root     21 :    12.417645156488910   Change is   -0.475675269648115
 Root     22 :    12.831947842027900   Change is   -0.256112999934742
 Root     23 :    12.875190116775340   Change is   -0.237354574122753
 Root     24 :    13.044602325004080   Change is   -0.289417051127739
 Iteration     3 Dimension    54 NMult    48 NNew      6
 Estimated number of processors is:   20
 CISAX will form     1 AO SS matrices at one time.
 NMat=     1 NSing=     1 JSym2X= 2.
 CoulSu:  requested number of processors reduced to:  21 ShMem   1 Linda.
 NMat=     1 NSing=     1 JSym2X= 2.
 CoulSu:  requested number of processors reduced to:  21 ShMem   1 Linda.
 NMat=     1 NSing=     1 JSym2X= 2.
 CoulSu:  requested number of processors reduced to:  21 ShMem   1 Linda.
 NMat=     1 NSing=     0 JSym2X= 2.
 CoulSu:  requested number of processors reduced to:  21 ShMem   1 Linda.
 NMat=     1 NSing=     0 JSym2X= 2.
 CoulSu:  requested number of processors reduced to:  21 ShMem   1 Linda.
 NMat=     1 NSing=     0 JSym2X= 2.
 CoulSu:  requested number of processors reduced to:  21 ShMem   1 Linda.
 Root      1 not converged, maximum delta is    0.011650538940454
 Excitation Energies [eV] at current iteration:
 Root      1 :     6.979631201374045   Change is   -0.012438116056516
 Root      2 :     7.778388224938526   Change is   -0.012104056077574
 Root      3 :     8.717129081390077   Change is   -0.019107015887442
 Root      4 :     8.855009545311708   Change is   -0.125871535467663
 Root      5 :     9.119832256403265   Change is   -0.005641483536710
 Root      6 :     9.828934307056597   Change is   -0.016773177022740
 Iteration     4 Dimension    60 NMult    54 NNew      6
 Estimated number of processors is:   20
 CISAX will form     1 AO SS matrices at one time.
 NMat=     1 NSing=     1 JSym2X= 2.
 CoulSu:  requested number of processors reduced to:  21 ShMem   1 Linda.
 NMat=     1 NSing=     1 JSym2X= 2.
 CoulSu:  requested number of processors reduced to:  21 ShMem   1 Linda.
 NMat=     1 NSing=     1 JSym2X= 2.
 CoulSu:  requested number of processors reduced to:  21 ShMem   1 Linda.
 NMat=     1 NSing=     0 JSym2X= 2.
 CoulSu:  requested number of processors reduced to:  21 ShMem   1 Linda.
 NMat=     1 NSing=     0 JSym2X= 2.
 CoulSu:  requested number of processors reduced to:  21 ShMem   1 Linda.
 NMat=     1 NSing=     0 JSym2X= 2.
 CoulSu:  requested number of processors reduced to:  21 ShMem   1 Linda.
 Root      1 has converged.
 Excitation Energies [eV] at current iteration:
 Root      1 :     6.979511317502218   Change is   -0.000119883871827
 Root      2 :     7.778298638771139   Change is   -0.000089586167388
 Root      3 :     8.716753929729711   Change is   -0.000375151660366
 Root      4 :     8.831980963759833   Change is   -0.023028581551874
 Root      5 :     9.119746219727617   Change is   -0.000086036675649
 Root      6 :     9.827030814921763   Change is   -0.001903492134835
 Convergence achieved on expansion vectors.
 ***********************************************************************
 Stability analysis using <AA,BB:AA,BB> singles matrix:
 ***********************************************************************
 1PDM for each excited state written to RWF  633
 Ground to excited state transition densities written to RWF  633

 Eigenvectors of the stability matrix:
 
 Eigenvector   1:      Triplet-A"   Eigenvalue= 0.2564923  <S**2>=2.000
       5 ->  6         0.65088
       5 ->  8        -0.10515
       5 -> 13        -0.16028
       5 -> 16        -0.15705
 The wavefunction is stable under the perturbations considered.
 Leave Link  914 at Sat Apr 17 13:17:06 2021, MaxMem=   104857600 cpu:            5120.5 elap:             126.5
 (Enter /s/ls4/users/knvvv/bin/g16sse/l508.exe)
 The wavefunction is already stable.
 Leave Link  508 at Sat Apr 17 13:17:06 2021, MaxMem=   104857600 cpu:               2.3 elap:               0.1
 (Enter /s/ls4/users/knvvv/bin/g16sse/l601.exe)
 Copying SCF densities to generalized density rwf, IOpCl= 0 IROHF=0.

 **********************************************************************

            Population analysis using the SCF density.

 **********************************************************************

 Orbital symmetries:
       Occupied  (A') (A') (A') (A') (A")
       Virtual   (A') (A') (A') (A") (A') (A') (A") (A') (A") (A')
                 (A') (A') (A') (A') (A") (A') (A") (A') (A") (A')
                 (A') (A') (A") (A") (A') (A') (A') (A') (A') (A')
                 (A') (A") (A") (A') (A') (A") (A') (A") (A') (A')
                 (A') (A") (A') (A') (A") (A") (A') (A') (A") (A')
                 (A") (A') (A') (A') (A') (A') (A") (A') (A") (A")
                 (A') (A') (A") (A') (A') (A") (A') (A') (A") (A')
                 (A') (A") (A') (A") (A') (A") (A') (A') (A") (A')
                 (A') (A") (A') (A") (A') (A') (A') (A") (A") (A')
                 (A') (A") (A") (A') (A') (A') (A") (A') (A") (A')
                 (A') (A") (A') (A') (A") (A') (A') (A") (A') (A")
                 (A") (A') (A') (A") (A') (A") (A') (A') (A') (A")
                 (A') (A") (A') (A') (A') (A') (A')
 The electronic state is 1-A'.
 Alpha  occ. eigenvalues --  -19.63317  -1.12603  -0.59841  -0.47546  -0.40157
 Alpha virt. eigenvalues --    0.00907   0.04154   0.06344   0.06416   0.13157
 Alpha virt. eigenvalues --    0.14772   0.17165   0.18602   0.19356   0.23228
 Alpha virt. eigenvalues --    0.25242   0.27556   0.34827   0.36629   0.40285
 Alpha virt. eigenvalues --    0.44436   0.45932   0.46175   0.50971   0.52239
 Alpha virt. eigenvalues --    0.54317   0.65400   0.76718   0.80990   0.83071
 Alpha virt. eigenvalues --    0.94174   1.00467   1.04007   1.10120   1.14115
 Alpha virt. eigenvalues --    1.32628   1.38729   1.44122   1.46156   1.50416
 Alpha virt. eigenvalues --    1.59988   1.62996   1.88375   1.94178   2.00839
 Alpha virt. eigenvalues --    2.02148   2.23674   2.24867   2.43501   2.43738
 Alpha virt. eigenvalues --    2.45015   2.54492   2.60191   2.63568   2.67431
 Alpha virt. eigenvalues --    2.67560   2.88453   3.09007   3.20736   3.25117
 Alpha virt. eigenvalues --    3.39828   3.66297   3.89001   3.91862   3.95134
 Alpha virt. eigenvalues --    4.06038   4.13405   4.22525   4.24031   4.39050
 Alpha virt. eigenvalues --    4.50152   4.72927   4.75624   5.24794   5.27471
 Alpha virt. eigenvalues --    5.37946   5.60258   5.77959   5.82668   5.91025
 Alpha virt. eigenvalues --    6.23730   6.35989   6.58824   6.85864   6.97099
 Alpha virt. eigenvalues --    7.05247   7.13559   7.19347   7.22977   7.25485
 Alpha virt. eigenvalues --    7.29652   7.52598   7.53177   7.65925   7.68305
 Alpha virt. eigenvalues --    7.69508   7.72451   7.82104   7.97081   8.11587
 Alpha virt. eigenvalues --    8.29889   8.33980   8.49042   8.51473   8.72697
 Alpha virt. eigenvalues --    8.86157   9.62360   9.68039  10.02645  10.06802
 Alpha virt. eigenvalues --   10.43976  10.48649  10.72197  10.82274  10.97222
 Alpha virt. eigenvalues --   11.14863  11.24964  11.45541  11.46246  11.61048
 Alpha virt. eigenvalues --   11.61702  12.05762  12.46158  13.04530  13.28460
 Alpha virt. eigenvalues --   13.39257  13.67665  14.13216  16.08847  16.30084
 Alpha virt. eigenvalues --   48.22852 251.28793
          Condensed to atoms (all electrons):
               1          2          3
     1  O    8.160353   0.272766   0.274588
     2  H    0.272766   0.389322  -0.018374
     3  H    0.274588  -0.018374   0.392366
 Mulliken charges:
               1
     1  O   -0.707706
     2  H    0.356286
     3  H    0.351421
 Sum of Mulliken charges =  -0.00000
 Mulliken charges with hydrogens summed into heavy atoms:
               1
     1  O   -0.000000
 Electronic spatial extent (au):  <R**2>=             20.1640
 Charge=             -0.0000 electrons
 Dipole moment (field-independent basis, Debye):
    X=              0.0048    Y=             -1.9269    Z=              0.0000  Tot=              1.9269
 Quadrupole moment (field-independent basis, Debye-Ang):
   XX=             -4.3751   YY=             -6.3750   ZZ=             -7.7586
   XY=              0.0322   XZ=             -0.0000   YZ=             -0.0000
 Traceless Quadrupole moment (field-independent basis, Debye-Ang):
   XX=              1.7945   YY=             -0.2054   ZZ=             -1.5891
   XY=              0.0322   XZ=             -0.0000   YZ=             -0.0000
 Octapole moment (field-independent basis, Debye-Ang**2):
  XXX=              0.0168  YYY=             -1.0115  ZZZ=              0.0000  XYY=             -0.0241
  XXY=             -1.4088  XXZ=              0.0000  XZZ=              0.0061  YZZ=             -0.2044
  YYZ=              0.0000  XYZ=              0.0000
 Hexadecapole moment (field-independent basis, Debye-Ang**3):
 XXXX=             -6.6134 YYYY=             -7.8978 ZZZZ=             -7.3736 XXXY=             -0.0024
 XXXZ=             -0.0000 YYYX=              0.0003 YYYZ=             -0.0000 ZZZX=             -0.0000
 ZZZY=             -0.0000 XXYY=             -2.0484 XXZZ=             -2.6821 YYZZ=             -2.6021
 XXYZ=             -0.0000 YYXZ=             -0.0000 ZZXY=             -0.0090
 N-N= 8.936513824931D+00 E-N=-1.986783946482D+02  KE= 7.610028817441D+01
 PrsmSu:  requested number of processors reduced to:  21 ShMem   1 Linda.
 No NMR shielding tensors so no spin-rotation constants.
 Leave Link  601 at Sat Apr 17 13:17:07 2021, MaxMem=   104857600 cpu:              72.1 elap:               1.7
 (Enter /s/ls4/users/knvvv/bin/g16sse/l9999.exe)

 Test job not archived.
 1\1\GINC-N156\Stability\RM062X\Gen\H2O1\KNVVV\17-Apr-2021\0\\#P M062X/
 GEN Integral=UltraFineGrid SCF=NoSymm Stable=(RExt, Opt) IOp(1/33=1)\\
 Database calculations.\\0,1\O,0,-0.682556,1.948072,0.239512\H,0,-1.225
 107,1.134455,0.190503\H,0,0.217701,1.61696,0.488707\\Version=ES64L-G16
 RevA.03\State=1-A'\HF=-76.4354213\RMSD=2.309e-09\Dipole=0.2212787,-0.7
 14335,0.1244552\Quadrupole=1.0827067,-0.0217825,-1.0609242,0.4496782,0
 .4986631,-0.0078406\PG=CS [SG(H2O1)]\\@


 A BIRD IN THE HAND IS SAFER THAN ONE OVERHEAD.

                       -- NEWTON'S SEVENTH LAW
 Job cpu time:       0 days  1 hours 48 minutes 33.5 seconds.
 Elapsed time:       0 days  0 hours  2 minutes 37.4 seconds.
 File lengths (MBytes):  RWF=     56 Int=      0 D2E=      0 Chk=      3 Scr=      1
 Normal termination of Gaussian 16 at Sat Apr 17 13:17:07 2021.
