 Entering Gaussian System, Link 0=/s/ls4/users/knvvv/bin/g16sse/g16
 Input=data/database/M062X--def2-QZVPPD--218_oclo_W4-11.gjf
 Output=data/database/M062X--def2-QZVPPD--218_oclo_W4-11.log
 Initial command:
 /s/ls4/users/knvvv/bin/g16sse/l1.exe "/s/ls4/users/knvvv/bin/scratch/Gau-1232.inp" -scrdir="/s/ls4/users/knvvv/bin/scratch/"
 Entering Link 1 = /s/ls4/users/knvvv/bin/g16sse/l1.exe PID=      1233.
  
 Copyright (c) 1988,1990,1992,1993,1995,1998,2003,2009,2016,
            Gaussian, Inc.  All Rights Reserved.
  
 This is part of the Gaussian(R) 16 program.  It is based on
 the Gaussian(R) 09 system (copyright 2009, Gaussian, Inc.),
 the Gaussian(R) 03 system (copyright 2003, Gaussian, Inc.),
 the Gaussian(R) 98 system (copyright 1998, Gaussian, Inc.),
 the Gaussian(R) 94 system (copyright 1995, Gaussian, Inc.),
 the Gaussian 92(TM) system (copyright 1992, Gaussian, Inc.),
 the Gaussian 90(TM) system (copyright 1990, Gaussian, Inc.),
 the Gaussian 88(TM) system (copyright 1988, Gaussian, Inc.),
 the Gaussian 86(TM) system (copyright 1986, Carnegie Mellon
 University), and the Gaussian 82(TM) system (copyright 1983,
 Carnegie Mellon University). Gaussian is a federally registered
 trademark of Gaussian, Inc.
  
 This software contains proprietary and confidential information,
 including trade secrets, belonging to Gaussian, Inc.
  
 This software is provided under written license and may be
 used, copied, transmitted, or stored only in accord with that
 written license.
  
 The following legend is applicable only to US Government
 contracts under FAR:
  
                    RESTRICTED RIGHTS LEGEND
  
 Use, reproduction and disclosure by the US Government is
 subject to restrictions as set forth in subparagraphs (a)
 and (c) of the Commercial Computer Software - Restricted
 Rights clause in FAR 52.227-19.
  
 Gaussian, Inc.
 340 Quinnipiac St., Bldg. 40, Wallingford CT 06492
  
  
 ---------------------------------------------------------------
 Warning -- This program may not be used in any manner that
 competes with the business of Gaussian, Inc. or will provide
 assistance to any competitor of Gaussian, Inc.  The licensee
 of this program is prohibited from giving any competitor of
 Gaussian, Inc. access to this program.  By using this program,
 the user acknowledges that Gaussian, Inc. is engaged in the
 business of creating and licensing software in the field of
 computational chemistry and represents and warrants to the
 licensee that it is not a competitor of Gaussian, Inc. and that
 it will not use this program in any manner prohibited above.
 ---------------------------------------------------------------
  

 Cite this work as:
 Gaussian 16, Revision A.03,
 M. J. Frisch, G. W. Trucks, H. B. Schlegel, G. E. Scuseria, 
 M. A. Robb, J. R. Cheeseman, G. Scalmani, V. Barone, 
 G. A. Petersson, H. Nakatsuji, X. Li, M. Caricato, A. V. Marenich, 
 J. Bloino, B. G. Janesko, R. Gomperts, B. Mennucci, H. P. Hratchian, 
 J. V. Ortiz, A. F. Izmaylov, J. L. Sonnenberg, D. Williams-Young, 
 F. Ding, F. Lipparini, F. Egidi, J. Goings, B. Peng, A. Petrone, 
 T. Henderson, D. Ranasinghe, V. G. Zakrzewski, J. Gao, N. Rega, 
 G. Zheng, W. Liang, M. Hada, M. Ehara, K. Toyota, R. Fukuda, 
 J. Hasegawa, M. Ishida, T. Nakajima, Y. Honda, O. Kitao, H. Nakai, 
 T. Vreven, K. Throssell, J. A. Montgomery, Jr., J. E. Peralta, 
 F. Ogliaro, M. J. Bearpark, J. J. Heyd, E. N. Brothers, K. N. Kudin, 
 V. N. Staroverov, T. A. Keith, R. Kobayashi, J. Normand, 
 K. Raghavachari, A. P. Rendell, J. C. Burant, S. S. Iyengar, 
 J. Tomasi, M. Cossi, J. M. Millam, M. Klene, C. Adamo, R. Cammi, 
 J. W. Ochterski, R. L. Martin, K. Morokuma, O. Farkas, 
 J. B. Foresman, and D. J. Fox, Gaussian, Inc., Wallingford CT, 2016.
 
 ******************************************
 Gaussian 16:  ES64L-G16RevA.03 25-Dec-2016
                17-Apr-2021 
 ******************************************
 %RWF=temp21_81135,70GB
 %nprocshared=48
 Will use up to   48 processors via shared memory.
 Default route: MaxDisk=80GB
 ----------------------------------------------------------------------
 #P M062X/GEN Integral=UltraFineGrid SCF=NoSymm Stable=(RExt, Opt) IOp(
 1/33=1)
 ----------------------------------------------------------------------
 1/33=1,38=1,172=1/1;
 2/12=2,17=6,18=5,40=1/2;
 3/5=7,11=2,25=1,30=1,74=-55,75=-5/1,2,3;
 4/9=2/1;
 5/5=2,38=5/2;
 6/7=2,8=2,9=2,10=2,28=1/1;
 8/6=1,10=90,11=11/1;
 9/8=-3,42=1,46=1/14;
 5/5=2,8=3,17=40,38=5/8(-2);
 6/7=2,8=2,9=2,10=2,28=1/1;
 99/5=1,9=1/99;
 Leave Link    1 at Sat Apr 17 20:19:45 2021, MaxMem=           0 cpu:              11.9 elap:               0.3
 (Enter /s/ls4/users/knvvv/bin/g16sse/l101.exe)
 ONIOM data not found on unit 2.
 ----------------------
 Database calculations.
 ----------------------
 TstMul:  ICh=     0
 TstMul:  Mul=     2
 TstMul:  ICh=     0
 TstMul:  Mul=     2
 Symbolic Z-matrix:
 Charge =  0 Multiplicity = 2
 Cl                    0.        0.        0. 
 O                     0.        0.        1.47287 
 O                     1.30662   0.       -0.67978 
 
 RdStrC is calling ZToCFu for IStruc=1 NZ=     3.
 PrtBox:  NBox=     1 Levels=  1 BoxLen=    8.00 SMaxX=        4.07
          Shift=            0.000000            0.000000            1.284595
 Box      1 Number                   0 centers from      1 to      3:
 After GenITR:
 ITRead=  0  0  0
 MicOpt= -1 -1 -1
 ITRead=  0  0  0
 MicOpt= -1 -1 -1
 NAtoms=      3 NQM=        3 NQMF=       0 NMMI=      0 NMMIF=      0
                NMic=       0 NMicF=      0.
                    Isotopes and Nuclear Properties:
 (Nuclear quadrupole moments (NQMom) in fm**2, nuclear magnetic moments (NMagM)
  in nuclear magnetons)

  Atom         1           2           3
 IAtWgt=          35          16          16
 AtmWgt=  34.9688527  15.9949146  15.9949146
 NucSpn=           3           0           0
 AtZEff=  -0.0000000  -0.0000000  -0.0000000
 NQMom=   -8.1650000   0.0000000   0.0000000
 NMagM=    0.8218740   0.0000000   0.0000000
 AtZNuc=  17.0000000   8.0000000   8.0000000
 No MM parameters found.
 Leave Link  101 at Sat Apr 17 20:19:45 2021, MaxMem=   104857600 cpu:               7.1 elap:               0.2
 (Enter /s/ls4/users/knvvv/bin/g16sse/l202.exe)
                          Input orientation:                          
 ---------------------------------------------------------------------
 Center     Atomic      Atomic             Coordinates (Angstroms)
 Number     Number       Type             X           Y           Z
 ---------------------------------------------------------------------
      1         17           0        0.000000    0.000000    0.000000
      2          8           0        0.000000    0.000000    1.472871
      3          8           0        1.306618    0.000000   -0.679778
 ---------------------------------------------------------------------
                    Distance matrix (angstroms):
                    1          2          3
     1  Cl   0.000000
     2  O    1.472871   0.000000
     3  O    1.472871   2.518164   0.000000
 Stoichiometry    ClO2(2)
 Framework group  C2V[C2(Cl),SGV(O2)]
 Deg. of freedom     2
 Full point group                 C2V     NOp   4
 Largest Abelian subgroup         C2V     NOp   4
 Largest concise Abelian subgroup C2      NOp   2
                         Standard orientation:                         
 ---------------------------------------------------------------------
 Center     Atomic      Atomic             Coordinates (Angstroms)
 Number     Number       Type             X           Y           Z
 ---------------------------------------------------------------------
      1         17           0       -0.000000    0.000000    0.370540
      2          8           0        0.000000    1.259082   -0.393699
      3          8           0       -0.000000   -1.259082   -0.393699
 ---------------------------------------------------------------------
 Rotational constants (GHZ):          51.7931393           9.9654585           8.3574174
 Leave Link  202 at Sat Apr 17 20:19:45 2021, MaxMem=   104857600 cpu:              12.5 elap:               0.3
 (Enter /s/ls4/users/knvvv/bin/g16sse/l301.exe)
 General basis read from cards:  (5D, 7F)
 Centers:       2      3
 S 8 1.00
     Exponent=  1.1650646908D+05 Coefficients=  4.0383857939D-05
     Exponent=  1.7504349724D+04 Coefficients=  3.1255139004D-04
     Exponent=  3.9934513230D+03 Coefficients=  1.6341473495D-03
     Exponent=  1.1330063186D+03 Coefficients=  6.8283224757D-03
     Exponent=  3.6999569594D+02 Coefficients=  2.4124410221D-02
     Exponent=  1.3362074349D+02 Coefficients=  7.2730206154D-02
     Exponent=  5.2035643649D+01 Coefficients=  1.7934429892D-01
     Exponent=  2.1461939313D+01 Coefficients=  3.3059588895D-01
 S 2 1.00
     Exponent=  8.9835051252D+01 Coefficients=  9.6468652996D-02
     Exponent=  2.6428010844D+01 Coefficients=  9.4117481120D-01
 S 1 1.00
     Exponent=  9.2822824649D+00 Coefficients=  1.0000000000D+00
 S 1 1.00
     Exponent=  4.0947728533D+00 Coefficients=  1.0000000000D+00
 S 1 1.00
     Exponent=  1.3255349078D+00 Coefficients=  1.0000000000D+00
 S 1 1.00
     Exponent=  5.1877230787D-01 Coefficients=  1.0000000000D+00
 S 1 1.00
     Exponent=  1.9772676454D-01 Coefficients=  1.0000000000D+00
 S 1 1.00
     Exponent=  6.9638535104D-02 Coefficients=  1.0000000000D+00
 P 5 1.00
     Exponent=  1.9115255810D+02 Coefficients=  2.5115697705D-03
     Exponent=  4.5233356739D+01 Coefficients=  2.0039240864D-02
     Exponent=  1.4353465922D+01 Coefficients=  9.3609064762D-02
     Exponent=  5.2422371832D+00 Coefficients=  3.0618127124D-01
     Exponent=  2.0792418599D+00 Coefficients=  6.7810501439D-01
 P 1 1.00
     Exponent=  8.4282371424D-01 Coefficients=  1.0000000000D+00
 P 1 1.00
     Exponent=  3.3617694891D-01 Coefficients=  1.0000000000D+00
 P 1 1.00
     Exponent=  1.2863997974D-01 Coefficients=  1.0000000000D+00
 P 1 1.00
     Exponent=  4.3598162776D-02 Coefficients=  1.0000000000D+00
 D 1 1.00
     Exponent=  3.7750000000D+00 Coefficients=  1.0000000000D+00
 D 1 1.00
     Exponent=  1.3000000000D+00 Coefficients=  1.0000000000D+00
 D 1 1.00
     Exponent=  4.4400000000D-01 Coefficients=  1.0000000000D+00
 D 1 1.00
     Exponent=  1.2546378695D-01 Coefficients=  1.0000000000D+00
 F 1 1.00
     Exponent=  2.6660000000D+00 Coefficients=  1.0000000000D+00
 F 1 1.00
     Exponent=  8.5900000000D-01 Coefficients=  1.0000000000D+00
 G 1 1.00
     Exponent=  1.8460000000D+00 Coefficients=  1.0000000000D+00
 ****
 Centers:       1
 S 10 1.00
     Exponent=  1.4674590095D+06 Coefficients=  1.1478257194D-05
     Exponent=  2.1975616433D+05 Coefficients=  8.9234299775D-05
     Exponent=  5.0010770301D+04 Coefficients=  4.6911086186D-04
     Exponent=  1.4164823918D+04 Coefficients=  1.9762446133D-03
     Exponent=  4.6207465525D+03 Coefficients=  7.1419937783D-03
     Exponent=  1.6678991635D+03 Coefficients=  2.2753219445D-02
     Exponent=  6.5029199265D+02 Coefficients=  6.3959782953D-02
     Exponent=  2.6938037376D+02 Coefficients=  1.5331059238D-01
     Exponent=  1.1706752106D+02 Coefficients=  2.8986952417D-01
     Exponent=  5.2811766843D+01 Coefficients=  3.6348071452D-01
 S 3 1.00
     Exponent=  4.6142769988D+02 Coefficients=  1.8019457578D-02
     Exponent=  1.4212665355D+02 Coefficients=  1.6489442314D-01
     Exponent=  5.4437838768D+01 Coefficients=  6.3891587584D-01
 S 1 1.00
     Exponent=  2.4160770219D+01 Coefficients=  1.0000000000D+00
 S 1 1.00
     Exponent=  9.7083540306D+00 Coefficients=  1.0000000000D+00
 S 1 1.00
     Exponent=  4.5640696733D+00 Coefficients=  1.0000000000D+00
 S 1 1.00
     Exponent=  2.1194744832D+00 Coefficients=  1.0000000000D+00
 S 1 1.00
     Exponent=  7.5722365394D-01 Coefficients=  1.0000000000D+00
 S 1 1.00
     Exponent=  3.3747224597D-01 Coefficients=  1.0000000000D+00
 S 1 1.00
     Exponent=  1.3860775149D-01 Coefficients=  1.0000000000D+00
 S 1 1.00
     Exponent=  5.4234565513D-02 Coefficients=  1.0000000000D+00
 P 8 1.00
     Exponent=  2.5019457890D+03 Coefficients=  2.4242618410D-04
     Exponent=  5.9288059285D+02 Coefficients=  2.1079961749D-03
     Exponent=  1.9218089186D+02 Coefficients=  1.1432693869D-02
     Exponent=  7.2875710488D+01 Coefficients=  4.4956698060D-02
     Exponent=  3.0436358370D+01 Coefficients=  1.3197476145D-01
     Exponent=  1.3490178902D+01 Coefficients=  2.7493639225D-01
     Exponent=  6.1478071413D+00 Coefficients=  3.8347236372D-01
     Exponent=  2.8450944820D+00 Coefficients=  2.8871943885D-01
 P 2 1.00
     Exponent=  1.0539397936D+02 Coefficients= -3.4311760144D-02
     Exponent=  6.7369738513D+00 Coefficients=  6.4060818902D-01
 P 1 1.00
     Exponent=  1.2421095772D+00 Coefficients=  1.0000000000D+00
 P 1 1.00
     Exponent=  5.5669714254D-01 Coefficients=  1.0000000000D+00
 P 1 1.00
     Exponent=  2.3387801464D-01 Coefficients=  1.0000000000D+00
 P 1 1.00
     Exponent=  9.3164490890D-02 Coefficients=  1.0000000000D+00
 P 1 1.00
     Exponent=  2.7256146018D-02 Coefficients=  1.0000000000D+00
 D 1 1.00
     Exponent=  5.1910000000D+00 Coefficients=  1.0000000000D+00
 D 1 1.00
     Exponent=  1.2760000000D+00 Coefficients=  1.0000000000D+00
 D 1 1.00
     Exponent=  5.8300000000D-01 Coefficients=  1.0000000000D+00
 D 1 1.00
     Exponent=  2.4300000000D-01 Coefficients=  1.0000000000D+00
 D 1 1.00
     Exponent=  8.3456538402D-02 Coefficients=  1.0000000000D+00
 F 1 1.00
     Exponent=  1.0890000000D+00 Coefficients=  1.0000000000D+00
 F 1 1.00
     Exponent=  4.2300000000D-01 Coefficients=  1.0000000000D+00
 G 1 1.00
     Exponent=  8.2700000000D-01 Coefficients=  1.0000000000D+00
 ****
 Ernie: Thresh=  0.10000D-02 Tol=  0.10000D-05 Strict=F.
 There are    99 symmetry adapted cartesian basis functions of A1  symmetry.
 There are    37 symmetry adapted cartesian basis functions of A2  symmetry.
 There are    48 symmetry adapted cartesian basis functions of B1  symmetry.
 There are    76 symmetry adapted cartesian basis functions of B2  symmetry.
 There are    77 symmetry adapted basis functions of A1  symmetry.
 There are    32 symmetry adapted basis functions of A2  symmetry.
 There are    41 symmetry adapted basis functions of B1  symmetry.
 There are    61 symmetry adapted basis functions of B2  symmetry.
   211 basis functions,   335 primitive gaussians,   260 cartesian basis functions
    17 alpha electrons       16 beta electrons
       nuclear repulsion energy       111.1741450258 Hartrees.
 IExCor= 4336 DFT=T Ex+Corr=M062X ExCW=0 ScaHFX=  0.540000
 ScaDFX=  1.000000  1.000000  1.000000  1.000000 ScalE2=  1.000000  1.000000
 IRadAn=      5 IRanWt=     -1 IRanGd=            0 ICorTp=0 IEmpDi=  4
 NAtoms=    3 NActive=    3 NUniq=    2 SFac= 2.25D+00 NAtFMM=   60 NAOKFM=F Big=F
 Integral buffers will be    131072 words long.
 Raffenetti 2 integral format.
 Two-electron integral symmetry is turned on.
 Leave Link  301 at Sat Apr 17 20:19:45 2021, MaxMem=   104857600 cpu:               8.4 elap:               0.2
 (Enter /s/ls4/users/knvvv/bin/g16sse/l302.exe)
 NPDir=0 NMtPBC=     1 NCelOv=     1 NCel=       1 NClECP=     1 NCelD=      1
         NCelK=      1 NCelE2=     1 NClLst=     1 CellRange=     0.0.
 One-electron integrals computed using PRISM.
 One-electron integral symmetry used in STVInt
 PrsmSu:  requested number of processors reduced to:   4 ShMem   1 Linda.
 PrsmSu:  requested number of processors reduced to:  21 ShMem   1 Linda.
 NBasis=   211 RedAO= T EigKep=  7.45D-05  NBF=    77    32    41    61
 NBsUse=   211 1.00D-06 EigRej= -1.00D+00 NBFU=    77    32    41    61
 Precomputing XC quadrature grid using
 IXCGrd= 4 IRadAn=           5 IRanWt=          -1 IRanGd=           0 AccXCQ= 0.00D+00.
 Generated NRdTot=       0 NPtTot=           0 NUsed=           0 NTot=          32
 NSgBfM=   257   257   257   257   257 MxSgAt=     3 MxSgA2=     3.
 Leave Link  302 at Sat Apr 17 20:19:55 2021, MaxMem=   104857600 cpu:             434.1 elap:               9.4
 (Enter /s/ls4/users/knvvv/bin/g16sse/l303.exe)
 DipDrv:  MaxL=1.
 Leave Link  303 at Sat Apr 17 20:19:56 2021, MaxMem=   104857600 cpu:              69.2 elap:               1.7
 (Enter /s/ls4/users/knvvv/bin/g16sse/l401.exe)
 SCF N**3 symmetry information disabled.
 ExpMin= 2.73D-02 ExpMax= 1.47D+06 ExpMxC= 1.67D+03 IAcc=3 IRadAn=         5 AccDes= 0.00D+00
 Harris functional with IExCor= 1009 and IRadAn=       5 diagonalized for initial guess.
 HarFok:  IExCor= 1009 AccDes= 0.00D+00 IRadAn=         5 IDoV= 1 UseB2=F ITyADJ=14
 ICtDFT=  3500011 ScaDFX=  1.000000  1.000000  1.000000  1.000000
 FoFCou: FMM=F IPFlag=           0 FMFlag=      100000 FMFlg1=           0
         NFxFlg=           0 DoJE=T BraDBF=F KetDBF=T FulRan=T
         wScrn=  0.000000 ICntrl=       500 IOpCl=  0 I1Cent=   200000004 NGrid=           0
         NMat0=    1 NMatS0=      1 NMatT0=    0 NMatD0=    1 NMtDS0=    0 NMtDT0=    0
 Petite list used in FoFCou.
 CoulSu:  requested number of processors reduced to:  21 ShMem   1 Linda.
 CoulSu:  requested number of processors reduced to:  21 ShMem   1 Linda.
 CoulSu:  requested number of processors reduced to:  21 ShMem   1 Linda.
 CoulSu:  requested number of processors reduced to:  21 ShMem   1 Linda.
 Harris En= -610.260679287295    
 JPrj=0 DoOrth=F DoCkMO=F.
 Initial guess orbital symmetries:
 Alpha Orbitals:
       Occupied  (A1) (B2) (A1) (A1) (B2) (A1) (B1) (A1) (B2) (A1)
                 (B2) (A1) (B1) (A2) (B2) (A1) (B1)
       Virtual   (A1) (B2) (A1) (B1) (A1) (B2) (A1) (B2) (A2) (A1)
                 (B1) (B2) (B1) (A1) (B2) (A1) (A2) (B2) (A1) (B1)
                 (A1) (B2) (B1) (A2) (A1) (A1) (A1) (B1) (B2) (B2)
                 (B1) (A2) (A2) (A1) (B2) (A1) (A1) (B1) (B2) (A1)
                 (A2) (B2) (A1) (B2) (B2) (A1) (B1) (A2) (B2) (B1)
                 (A1) (B2) (A1) (B1) (A2) (A1) (B1) (A1) (B2) (A2)
                 (A1) (A1) (B2) (B2) (B1) (B2) (A2) (B1) (A1) (A1)
                 (B1) (A1) (B2) (A2) (B2) (A1) (B2) (A1) (A2) (B1)
                 (A1) (B2) (A2) (B2) (B1) (A1) (A1) (A2) (B2) (A1)
                 (B1) (B1) (A2) (A1) (B2) (A1) (B2) (A1) (B1) (B2)
                 (B1) (A1) (A2) (B1) (A1) (B2) (A1) (B2) (B1) (B1)
                 (A2) (A1) (B2) (A2) (A1) (B1) (B2) (A2) (A1) (B2)
                 (A1) (B2) (B2) (A2) (B1) (A1) (B2) (A1) (A2) (B1)
                 (B2) (A1) (A1) (B2) (A1) (A2) (B2) (B1) (A1) (A2)
                 (B2) (B1) (A1) (B1) (B2) (A1) (B2) (A2) (A2) (B1)
                 (A1) (B2) (A1) (B1) (A1) (A2) (B2) (B1) (A2) (A1)
                 (B2) (A2) (B1) (B2) (A1) (A1) (B1) (A2) (B2) (A1)
                 (B2) (A2) (B1) (A1) (A1) (B2) (A2) (B1) (B2) (A1)
                 (A1) (B2) (A1) (B2) (A1) (B1) (A1) (B2) (A1) (B2)
                 (A1) (A1) (B2) (A1)
 Beta  Orbitals:
       Occupied  (A1) (B2) (A1) (A1) (B2) (A1) (B1) (A1) (B2) (A1)
                 (B2) (A1) (B1) (A2) (B2) (A1)
       Virtual   (B1) (A1) (B2) (A1) (B1) (A1) (B2) (A1) (B2) (A2)
                 (A1) (B1) (B2) (B1) (A1) (B2) (A1) (A2) (B2) (A1)
                 (B1) (A1) (B2) (B1) (A2) (A1) (A1) (A1) (B1) (B2)
                 (B2) (B1) (A2) (A2) (A1) (B2) (A1) (A1) (B1) (B2)
                 (A1) (A2) (B2) (A1) (B2) (B2) (A1) (B1) (A2) (B2)
                 (B1) (A1) (B2) (A1) (B1) (A2) (A1) (B1) (A1) (B2)
                 (A2) (A1) (A1) (B2) (B2) (B1) (B2) (A2) (B1) (A1)
                 (A1) (B1) (A1) (B2) (A2) (B2) (A1) (B2) (A1) (A2)
                 (B1) (A1) (B2) (A2) (B2) (B1) (A1) (A1) (A2) (B2)
                 (A1) (B1) (B1) (A2) (A1) (B2) (A1) (B2) (A1) (B1)
                 (B2) (B1) (A1) (A2) (B1) (A1) (B2) (A1) (B2) (B1)
                 (B1) (A2) (A1) (B2) (A2) (A1) (B1) (B2) (A2) (A1)
                 (B2) (A1) (B2) (B2) (A2) (B1) (A1) (B2) (A1) (A2)
                 (B1) (B2) (A1) (A1) (B2) (A1) (A2) (B2) (B1) (A1)
                 (A2) (B2) (B1) (A1) (B1) (B2) (A1) (B2) (A2) (A2)
                 (B1) (A1) (B2) (A1) (B1) (A1) (A2) (B2) (B1) (A2)
                 (A1) (B2) (A2) (B1) (B2) (A1) (A1) (B1) (A2) (B2)
                 (A1) (B2) (A2) (B1) (A1) (A1) (B2) (A2) (B1) (B2)
                 (A1) (A1) (B2) (A1) (B2) (A1) (B1) (A1) (B2) (A1)
                 (B2) (A1) (A1) (B2) (A1)
 The electronic state of the initial guess is 2-B1.
 Initial guess <Sx>= 0.0000 <Sy>= 0.0000 <Sz>= 0.5000 <S**2>= 0.7500 S= 0.5000
 Leave Link  401 at Sat Apr 17 20:20:02 2021, MaxMem=   104857600 cpu:             252.2 elap:               5.7
 (Enter /s/ls4/users/knvvv/bin/g16sse/l502.exe)
 Integral symmetry usage will be decided dynamically.
 UHF open shell SCF:
 Using DIIS extrapolation, IDIIS=  1040.
 NGot=   104857600 LenX=   104706223 LenY=   104638182
 Requested convergence on RMS density matrix=1.00D-08 within 128 cycles.
 Requested convergence on MAX density matrix=1.00D-06.
 Requested convergence on             energy=1.00D-06.
 No special actions if energy rises.
 Fock matrices will be formed incrementally for  20 cycles.

 Cycle   1  Pass 1  IDiag  1:
 FoFJK:  IHMeth= 1 ICntrl=       0 DoSepK=F KAlg= 0 I1Cent=           0 FoldK=F
 IRaf= 980000000 NMat=       1 IRICut=       1 DoRegI=T DoRafI=F ISym2E= 1 IDoP0=0 IntGTp=1.
 FoFCou: FMM=F IPFlag=           0 FMFlag=      100000 FMFlg1=           0
         NFxFlg=           0 DoJE=F BraDBF=F KetDBF=F FulRan=T
         wScrn=  0.000000 ICntrl=         0 IOpCl=  1 I1Cent=           0 NGrid=           0
         NMat0=    1 NMatS0=      1 NMatT0=    0 NMatD0=    1 NMtDS0=    0 NMtDT0=    0
 Petite list used in FoFCou.
 CoulSu:  requested number of processors reduced to:  20 ShMem   1 Linda.
 E= -610.259711057533    
 DIIS: error= 4.78D-02 at cycle   1 NSaved=   1.
 NSaved= 1 IEnMin= 1 EnMin= -610.259711057533     IErMin= 1 ErrMin= 4.78D-02
 ErrMax= 4.78D-02  0.00D+00 EMaxC= 1.00D-01 BMatC= 1.73D+00 BMatP= 1.73D+00
 IDIUse=3 WtCom= 5.22D-01 WtEn= 4.78D-01
 Coeff-Com:  0.100D+01
 Coeff-En:   0.100D+01
 Coeff:      0.100D+01
 Gap=     0.379 Goal=   None    Shift=    0.000
 Gap=     0.229 Goal=   None    Shift=    0.000
 GapD=    0.229 DampG=1.000 DampE=0.500 DampFc=0.5000 IDamp=-1.
 Damping current iteration by 5.00D-01
 RMSDP=2.86D-03 MaxDP=1.14D-01              OVMax= 3.75D-01

 Cycle   2  Pass 1  IDiag  1:
 RMSU=  1.43D-03    CP:  1.01D+00
 CoulSu:  requested number of processors reduced to:  20 ShMem   1 Linda.
 E= -610.320275041452     Delta-E=       -0.060563983919 Rises=F Damp=T
 DIIS: error= 2.44D-02 at cycle   2 NSaved=   2.
 NSaved= 2 IEnMin= 2 EnMin= -610.320275041452     IErMin= 2 ErrMin= 2.44D-02
 ErrMax= 2.44D-02  0.00D+00 EMaxC= 1.00D-01 BMatC= 2.47D-01 BMatP= 1.73D+00
 IDIUse=3 WtCom= 7.56D-01 WtEn= 2.44D-01
 Coeff-Com:  0.144D+00 0.856D+00
 Coeff-En:   0.354D+00 0.646D+00
 Coeff:      0.195D+00 0.805D+00
 Gap=     0.394 Goal=   None    Shift=    0.000
 Gap=     0.299 Goal=   None    Shift=    0.000
 RMSDP=7.77D-04 MaxDP=4.49D-02 DE=-6.06D-02 OVMax= 2.11D-01

 Cycle   3  Pass 1  IDiag  1:
 RMSU=  7.56D-04    CP:  1.00D+00  8.78D-01
 CoulSu:  requested number of processors reduced to:  20 ShMem   1 Linda.
 E= -610.482539712952     Delta-E=       -0.162264671500 Rises=F Damp=F
 DIIS: error= 5.86D-03 at cycle   3 NSaved=   3.
 NSaved= 3 IEnMin= 3 EnMin= -610.482539712952     IErMin= 3 ErrMin= 5.86D-03
 ErrMax= 5.86D-03  0.00D+00 EMaxC= 1.00D-01 BMatC= 1.39D-02 BMatP= 2.47D-01
 IDIUse=3 WtCom= 9.41D-01 WtEn= 5.86D-02
 Coeff-Com: -0.310D-01 0.132D+00 0.899D+00
 Coeff-En:   0.000D+00 0.000D+00 0.100D+01
 Coeff:     -0.292D-01 0.124D+00 0.905D+00
 Gap=     0.357 Goal=   None    Shift=    0.000
 Gap=     0.287 Goal=   None    Shift=    0.000
 RMSDP=2.32D-04 MaxDP=1.13D-02 DE=-1.62D-01 OVMax= 3.14D-02

 Cycle   4  Pass 1  IDiag  1:
 RMSU=  1.96D-04    CP:  1.00D+00  9.60D-01  1.02D+00
 CoulSu:  requested number of processors reduced to:  20 ShMem   1 Linda.
 E= -610.484968802185     Delta-E=       -0.002429089233 Rises=F Damp=F
 DIIS: error= 2.28D-03 at cycle   4 NSaved=   4.
 NSaved= 4 IEnMin= 4 EnMin= -610.484968802185     IErMin= 4 ErrMin= 2.28D-03
 ErrMax= 2.28D-03  0.00D+00 EMaxC= 1.00D-01 BMatC= 1.98D-03 BMatP= 1.39D-02
 IDIUse=3 WtCom= 9.77D-01 WtEn= 2.28D-02
 Coeff-Com: -0.590D-02 0.355D-02 0.276D+00 0.726D+00
 Coeff-En:   0.000D+00 0.000D+00 0.000D+00 0.100D+01
 Coeff:     -0.576D-02 0.347D-02 0.270D+00 0.733D+00
 Gap=     0.359 Goal=   None    Shift=    0.000
 Gap=     0.288 Goal=   None    Shift=    0.000
 RMSDP=5.57D-05 MaxDP=2.07D-03 DE=-2.43D-03 OVMax= 5.89D-03

 Cycle   5  Pass 1  IDiag  1:
 RMSU=  4.92D-05    CP:  1.00D+00  9.60D-01  1.06D+00  1.02D+00
 CoulSu:  requested number of processors reduced to:  20 ShMem   1 Linda.
 E= -610.485339726239     Delta-E=       -0.000370924055 Rises=F Damp=F
 DIIS: error= 6.13D-04 at cycle   5 NSaved=   5.
 NSaved= 5 IEnMin= 5 EnMin= -610.485339726239     IErMin= 5 ErrMin= 6.13D-04
 ErrMax= 6.13D-04  0.00D+00 EMaxC= 1.00D-01 BMatC= 1.01D-04 BMatP= 1.98D-03
 IDIUse=3 WtCom= 9.94D-01 WtEn= 6.13D-03
 Coeff-Com:  0.506D-02-0.119D-01-0.691D-01-0.125D-03 0.108D+01
 Coeff-En:   0.000D+00 0.000D+00 0.000D+00 0.000D+00 0.100D+01
 Coeff:      0.503D-02-0.118D-01-0.687D-01-0.124D-03 0.108D+01
 Gap=     0.359 Goal=   None    Shift=    0.000
 Gap=     0.288 Goal=   None    Shift=    0.000
 RMSDP=3.39D-05 MaxDP=1.82D-03 DE=-3.71D-04 OVMax= 5.47D-03

 Cycle   6  Pass 1  IDiag  1:
 RMSU=  1.74D-05    CP:  1.00D+00  9.57D-01  1.06D+00  1.15D+00  1.26D+00
 CoulSu:  requested number of processors reduced to:  20 ShMem   1 Linda.
 E= -610.485398931179     Delta-E=       -0.000059204940 Rises=F Damp=F
 DIIS: error= 1.77D-04 at cycle   6 NSaved=   6.
 NSaved= 6 IEnMin= 6 EnMin= -610.485398931179     IErMin= 6 ErrMin= 1.77D-04
 ErrMax= 1.77D-04  0.00D+00 EMaxC= 1.00D-01 BMatC= 1.02D-05 BMatP= 1.01D-04
 IDIUse=3 WtCom= 9.98D-01 WtEn= 1.77D-03
 Coeff-Com:  0.728D-04 0.519D-03-0.238D-01-0.960D-01-0.933D-01 0.121D+01
 Coeff-En:   0.000D+00 0.000D+00 0.000D+00 0.000D+00 0.000D+00 0.100D+01
 Coeff:      0.726D-04 0.519D-03-0.238D-01-0.958D-01-0.932D-01 0.121D+01
 Gap=     0.359 Goal=   None    Shift=    0.000
 Gap=     0.287 Goal=   None    Shift=    0.000
 RMSDP=1.52D-05 MaxDP=7.61D-04 DE=-5.92D-05 OVMax= 3.24D-03

 Cycle   7  Pass 1  IDiag  1:
 RMSU=  5.34D-06    CP:  1.00D+00  9.58D-01  1.06D+00  1.18D+00  1.45D+00
                    CP:  1.48D+00
 CoulSu:  requested number of processors reduced to:  20 ShMem   1 Linda.
 E= -610.485407859476     Delta-E=       -0.000008928297 Rises=F Damp=F
 DIIS: error= 5.60D-05 at cycle   7 NSaved=   7.
 NSaved= 7 IEnMin= 7 EnMin= -610.485407859476     IErMin= 7 ErrMin= 5.60D-05
 ErrMax= 5.60D-05  0.00D+00 EMaxC= 1.00D-01 BMatC= 7.18D-07 BMatP= 1.02D-05
 IDIUse=1 WtCom= 1.00D+00 WtEn= 0.00D+00
 Coeff-Com:  0.473D-04-0.448D-05 0.101D-01 0.280D-01-0.524D-01-0.286D+00
 Coeff-Com:  0.130D+01
 Coeff:      0.473D-04-0.448D-05 0.101D-01 0.280D-01-0.524D-01-0.286D+00
 Coeff:      0.130D+01
 Gap=     0.359 Goal=   None    Shift=    0.000
 Gap=     0.287 Goal=   None    Shift=    0.000
 RMSDP=4.02D-06 MaxDP=2.40D-04 DE=-8.93D-06 OVMax= 6.36D-04

 Cycle   8  Pass 1  IDiag  1:
 RMSU=  1.26D-06    CP:  1.00D+00  9.57D-01  1.06D+00  1.19D+00  1.47D+00
                    CP:  1.64D+00  1.37D+00
 CoulSu:  requested number of processors reduced to:  20 ShMem   1 Linda.
 E= -610.485408338920     Delta-E=       -0.000000479444 Rises=F Damp=F
 DIIS: error= 1.10D-05 at cycle   8 NSaved=   8.
 NSaved= 8 IEnMin= 8 EnMin= -610.485408338920     IErMin= 8 ErrMin= 1.10D-05
 ErrMax= 1.10D-05  0.00D+00 EMaxC= 1.00D-01 BMatC= 3.08D-08 BMatP= 7.18D-07
 IDIUse=1 WtCom= 1.00D+00 WtEn= 0.00D+00
 Coeff-Com: -0.183D-07-0.341D-04 0.192D-02 0.577D-02 0.108D-02-0.702D-01
 Coeff-Com:  0.454D-01 0.102D+01
 Coeff:     -0.183D-07-0.341D-04 0.192D-02 0.577D-02 0.108D-02-0.702D-01
 Coeff:      0.454D-01 0.102D+01
 Gap=     0.359 Goal=   None    Shift=    0.000
 Gap=     0.287 Goal=   None    Shift=    0.000
 RMSDP=6.76D-07 MaxDP=2.83D-05 DE=-4.79D-07 OVMax= 8.03D-05

 Cycle   9  Pass 1  IDiag  1:
 RMSU=  2.91D-07    CP:  1.00D+00  9.57D-01  1.06D+00  1.19D+00  1.48D+00
                    CP:  1.65D+00  1.44D+00  1.28D+00
 CoulSu:  requested number of processors reduced to:  20 ShMem   1 Linda.
 E= -610.485408357640     Delta-E=       -0.000000018720 Rises=F Damp=F
 DIIS: error= 3.10D-06 at cycle   9 NSaved=   9.
 NSaved= 9 IEnMin= 9 EnMin= -610.485408357640     IErMin= 9 ErrMin= 3.10D-06
 ErrMax= 3.10D-06  0.00D+00 EMaxC= 1.00D-01 BMatC= 3.69D-09 BMatP= 3.08D-08
 IDIUse=1 WtCom= 1.00D+00 WtEn= 0.00D+00
 Coeff-Com: -0.762D-05 0.518D-05-0.988D-03-0.300D-02 0.609D-02 0.273D-01
 Coeff-Com: -0.145D+00 0.793D-01 0.104D+01
 Coeff:     -0.762D-05 0.518D-05-0.988D-03-0.300D-02 0.609D-02 0.273D-01
 Coeff:     -0.145D+00 0.793D-01 0.104D+01
 Gap=     0.359 Goal=   None    Shift=    0.000
 Gap=     0.287 Goal=   None    Shift=    0.000
 RMSDP=2.58D-07 MaxDP=1.11D-05 DE=-1.87D-08 OVMax= 3.26D-05

 Cycle  10  Pass 1  IDiag  1:
 RMSU=  8.87D-08    CP:  1.00D+00  9.57D-01  1.06D+00  1.19D+00  1.48D+00
                    CP:  1.65D+00  1.46D+00  1.42D+00  1.32D+00
 CoulSu:  requested number of processors reduced to:  20 ShMem   1 Linda.
 E= -610.485408359806     Delta-E=       -0.000000002166 Rises=F Damp=F
 DIIS: error= 1.04D-06 at cycle  10 NSaved=  10.
 NSaved=10 IEnMin=10 EnMin= -610.485408359806     IErMin=10 ErrMin= 1.04D-06
 ErrMax= 1.04D-06  0.00D+00 EMaxC= 1.00D-01 BMatC= 1.99D-10 BMatP= 3.69D-09
 IDIUse=1 WtCom= 1.00D+00 WtEn= 0.00D+00
 Coeff-Com: -0.273D-05 0.839D-05 0.347D-04 0.849D-04-0.925D-03 0.934D-03
 Coeff-Com:  0.160D-01-0.843D-01-0.961D-01 0.116D+01
 Coeff:     -0.273D-05 0.839D-05 0.347D-04 0.849D-04-0.925D-03 0.934D-03
 Coeff:      0.160D-01-0.843D-01-0.961D-01 0.116D+01
 Gap=     0.359 Goal=   None    Shift=    0.000
 Gap=     0.287 Goal=   None    Shift=    0.000
 RMSDP=7.48D-08 MaxDP=4.01D-06 DE=-2.17D-09 OVMax= 1.02D-05

 Cycle  11  Pass 1  IDiag  1:
 RMSU=  2.77D-08    CP:  1.00D+00  9.57D-01  1.06D+00  1.19D+00  1.48D+00
                    CP:  1.65D+00  1.46D+00  1.45D+00  1.47D+00  1.36D+00
 CoulSu:  requested number of processors reduced to:  20 ShMem   1 Linda.
 E= -610.485408359940     Delta-E=       -0.000000000134 Rises=F Damp=F
 DIIS: error= 1.64D-07 at cycle  11 NSaved=  11.
 NSaved=11 IEnMin=11 EnMin= -610.485408359940     IErMin=11 ErrMin= 1.64D-07
 ErrMax= 1.64D-07  0.00D+00 EMaxC= 1.00D-01 BMatC= 7.85D-12 BMatP= 1.99D-10
 IDIUse=1 WtCom= 1.00D+00 WtEn= 0.00D+00
 Coeff-Com:  0.855D-06-0.103D-05 0.291D-04 0.101D-03-0.272D-03-0.110D-02
 Coeff-Com:  0.668D-02-0.192D-02-0.529D-01-0.256D-01 0.107D+01
 Coeff:      0.855D-06-0.103D-05 0.291D-04 0.101D-03-0.272D-03-0.110D-02
 Coeff:      0.668D-02-0.192D-02-0.529D-01-0.256D-01 0.107D+01
 Gap=     0.359 Goal=   None    Shift=    0.000
 Gap=     0.287 Goal=   None    Shift=    0.000
 RMSDP=1.74D-08 MaxDP=1.48D-06 DE=-1.34D-10 OVMax= 1.61D-06

 Cycle  12  Pass 1  IDiag  1:
 RMSU=  4.55D-09    CP:  1.00D+00  9.57D-01  1.06D+00  1.19D+00  1.48D+00
                    CP:  1.65D+00  1.46D+00  1.45D+00  1.49D+00  1.47D+00
                    CP:  1.29D+00
 CoulSu:  requested number of processors reduced to:  20 ShMem   1 Linda.
 E= -610.485408359955     Delta-E=       -0.000000000015 Rises=F Damp=F
 DIIS: error= 3.21D-08 at cycle  12 NSaved=  12.
 NSaved=12 IEnMin=12 EnMin= -610.485408359955     IErMin=12 ErrMin= 3.21D-08
 ErrMax= 3.21D-08  0.00D+00 EMaxC= 1.00D-01 BMatC= 5.45D-13 BMatP= 7.85D-12
 IDIUse=1 WtCom= 1.00D+00 WtEn= 0.00D+00
 Coeff-Com: -0.167D-07-0.251D-06-0.797D-07-0.190D-05 0.666D-04-0.292D-04
 Coeff-Com: -0.135D-02 0.574D-02 0.809D-02-0.748D-01-0.904D-02 0.107D+01
 Coeff:     -0.167D-07-0.251D-06-0.797D-07-0.190D-05 0.666D-04-0.292D-04
 Coeff:     -0.135D-02 0.574D-02 0.809D-02-0.748D-01-0.904D-02 0.107D+01
 Gap=     0.359 Goal=   None    Shift=    0.000
 Gap=     0.287 Goal=   None    Shift=    0.000
 RMSDP=3.66D-09 MaxDP=1.99D-07 DE=-1.55D-11 OVMax= 4.11D-07

 SCF Done:  E(UM062X) =  -610.485408360     A.U. after   12 cycles
            NFock= 12  Conv=0.37D-08     -V/T= 2.0019
 <Sx>= 0.0000 <Sy>= 0.0000 <Sz>= 0.5000 <S**2>= 0.7585 S= 0.5042
 <L.S>= 0.000000000000E+00
 KE= 6.093189595056D+02 PE=-1.670457736550D+03 EE= 3.394792236585D+02
 Annihilation of the first spin contaminant:
 S**2 before annihilation     0.7585,   after     0.7500
 Leave Link  502 at Sat Apr 17 20:25:29 2021, MaxMem=   104857600 cpu:           15099.3 elap:             327.0
 (Enter /s/ls4/users/knvvv/bin/g16sse/l601.exe)
 Copying SCF densities to generalized density rwf, IOpCl= 1 IROHF=0.

 **********************************************************************

            Population analysis using the SCF density.

 **********************************************************************

 Orbital symmetries:
 Alpha Orbitals:
       Occupied  (A1) (B2) (A1) (A1) (B1) (B2) (A1) (A1) (B2) (A1)
                 (B1) (A1) (B2) (A2) (B2) (A1) (B1)
       Virtual   (A1) (A1) (B2) (B1) (A1) (B2) (B2) (A1) (A2) (A1)
                 (B1) (B2) (B1) (A1) (A1) (B2) (A2) (B2) (A1) (B1)
                 (A1) (B2) (B1) (A1) (A1) (A2) (A1) (B1) (B2) (B1)
                 (B2) (A2) (A2) (A1) (B2) (A1) (B1) (B2) (A1) (A1)
                 (A2) (B2) (A1) (B2) (A1) (B2) (B1) (B1) (A2) (B2)
                 (A1) (A1) (B1) (B2) (A1) (A2) (A1) (B1) (B2) (A2)
                 (A1) (B2) (A1) (B1) (A2) (B2) (B1) (B2) (A1) (A1)
                 (B1) (B2) (A2) (A1) (B2) (A1) (B2) (A1) (A2) (B1)
                 (A1) (B2) (A2) (B2) (B1) (A1) (A1) (A2) (B2) (A1)
                 (B1) (B1) (A2) (A1) (A1) (B2) (B2) (A1) (B1) (B1)
                 (B1) (B2) (A1) (A1) (A2) (A1) (B2) (B1) (B2) (A2)
                 (B1) (A1) (B2) (A2) (A1) (B1) (B2) (A2) (B2) (A1)
                 (A1) (B2) (A2) (B2) (B1) (A1) (B2) (A1) (A2) (B1)
                 (B2) (A1) (A1) (B2) (A1) (A2) (B2) (B1) (A2) (A1)
                 (B2) (B1) (A1) (B1) (B2) (A1) (B2) (A2) (A2) (B1)
                 (A1) (B2) (A1) (B1) (A1) (A2) (B2) (B1) (A2) (A1)
                 (B2) (A2) (B1) (B2) (A1) (A1) (B1) (A2) (B2) (A1)
                 (B2) (A1) (A2) (B1) (A1) (B2) (A2) (B1) (B2) (A1)
                 (A1) (B2) (A1) (B2) (A1) (B1) (A1) (B2) (A1) (B2)
                 (A1) (A1) (B2) (A1)
 Beta  Orbitals:
       Occupied  (A1) (B2) (A1) (A1) (B2) (A1) (B1) (A1) (B2) (A1)
                 (A1) (B2) (B1) (B2) (A1) (A2)
       Virtual   (B1) (A1) (A1) (B2) (B1) (A1) (B2) (B2) (A1) (A2)
                 (A1) (B1) (B2) (B1) (A1) (A1) (B2) (A2) (B2) (A1)
                 (B1) (A1) (B2) (B1) (A1) (A1) (A2) (A1) (B1) (B2)
                 (B1) (B2) (A2) (A2) (A1) (B2) (A1) (B1) (B2) (A1)
                 (A1) (A2) (B2) (A1) (B2) (A1) (B2) (B1) (A2) (B1)
                 (B2) (A1) (A1) (B1) (B2) (A1) (A2) (A1) (B1) (B2)
                 (A2) (A1) (B2) (A1) (B1) (B2) (A2) (B2) (B1) (A1)
                 (A1) (B1) (B2) (A2) (A1) (B2) (A1) (B2) (A1) (A2)
                 (B1) (A1) (B2) (A2) (B2) (B1) (A1) (A1) (A2) (B2)
                 (A1) (B1) (B1) (A2) (A1) (A1) (B2) (B2) (A1) (B1)
                 (B1) (B2) (B1) (A1) (A1) (A1) (A2) (B2) (B2) (B1)
                 (A2) (B1) (A1) (B2) (A2) (A1) (B1) (B2) (A2) (B2)
                 (A1) (A1) (B2) (A2) (B2) (B1) (A1) (B2) (A1) (A2)
                 (B1) (B2) (A1) (A1) (B2) (A1) (A2) (B2) (B1) (B1)
                 (A2) (A1) (B2) (A1) (B1) (B2) (A1) (B2) (A2) (A2)
                 (B1) (A1) (B2) (A1) (B1) (A1) (A2) (B2) (A2) (B1)
                 (A1) (B2) (A2) (B1) (B2) (A1) (A1) (B1) (B2) (A2)
                 (A1) (B2) (A1) (A2) (B1) (A1) (B2) (A2) (B1) (B2)
                 (A1) (A1) (B2) (A1) (B2) (A1) (B1) (A1) (B2) (A1)
                 (B2) (A1) (A1) (B2) (A1)
 The electronic state is 2-B1.
 Alpha  occ. eigenvalues -- -102.88721 -19.70743 -19.70742 -10.01875  -7.74597
 Alpha  occ. eigenvalues --   -7.74295  -7.74007  -1.34099  -1.20362  -0.86359
 Alpha  occ. eigenvalues --   -0.65230  -0.63300  -0.62624  -0.50114  -0.44933
 Alpha  occ. eigenvalues --   -0.44563  -0.35292
 Alpha virt. eigenvalues --    0.00641   0.01096   0.01571   0.02092   0.04894
 Alpha virt. eigenvalues --    0.06810   0.07831   0.08437   0.08617   0.09890
 Alpha virt. eigenvalues --    0.10145   0.13239   0.17619   0.19745   0.20002
 Alpha virt. eigenvalues --    0.20445   0.23168   0.26905   0.27942   0.28407
 Alpha virt. eigenvalues --    0.32092   0.35381   0.36110   0.36574   0.39063
 Alpha virt. eigenvalues --    0.39193   0.41406   0.42592   0.44817   0.45144
 Alpha virt. eigenvalues --    0.46217   0.46753   0.47976   0.50565   0.54247
 Alpha virt. eigenvalues --    0.59462   0.61190   0.62611   0.62678   0.65701
 Alpha virt. eigenvalues --    0.65907   0.72557   0.73974   0.77927   1.01211
 Alpha virt. eigenvalues --    1.02573   1.10654   1.16164   1.16297   1.17351
 Alpha virt. eigenvalues --    1.19957   1.22371   1.23719   1.26292   1.33059
 Alpha virt. eigenvalues --    1.34511   1.36865   1.39904   1.41373   1.44521
 Alpha virt. eigenvalues --    1.48193   1.52065   1.52729   1.54495   1.60125
 Alpha virt. eigenvalues --    1.60172   1.61761   1.62115   1.65774   1.84488
 Alpha virt. eigenvalues --    1.95249   1.95661   1.96478   1.99070   2.13527
 Alpha virt. eigenvalues --    2.20848   2.26412   2.65624   2.94352   3.01506
 Alpha virt. eigenvalues --    3.02116   3.02994   3.07461   3.13471   3.16255
 Alpha virt. eigenvalues --    3.18287   3.19043   3.21439   3.22856   3.25429
 Alpha virt. eigenvalues --    3.28867   3.37823   3.40546   3.45317   3.54237
 Alpha virt. eigenvalues --    3.55563   3.62609   3.66179   3.75362   3.77270
 Alpha virt. eigenvalues --    3.83624   3.85080   3.86248   3.94878   3.98698
 Alpha virt. eigenvalues --    3.99119   4.02875   4.06030   4.06168   4.09367
 Alpha virt. eigenvalues --    4.11097   4.13323   4.18109   4.26267   4.27152
 Alpha virt. eigenvalues --    4.35389   4.37839   4.39093   4.48059   4.54311
 Alpha virt. eigenvalues --    4.65940   4.75216   4.91662   4.95410   4.98030
 Alpha virt. eigenvalues --    5.06724   5.09820   5.22091   5.36570   5.46445
 Alpha virt. eigenvalues --    5.53183   5.57429   7.23317   7.42102   8.46519
 Alpha virt. eigenvalues --    8.71815   8.71857   8.73883   8.74034   8.74046
 Alpha virt. eigenvalues --    8.74049   8.74067   8.77261   8.82413   8.91217
 Alpha virt. eigenvalues --    8.91859   9.06497   9.07847   9.24794   9.32275
 Alpha virt. eigenvalues --    9.37695   9.42842   9.49654  10.64782  10.68946
 Alpha virt. eigenvalues --   10.74159  10.75515  10.76701  10.76811  10.77368
 Alpha virt. eigenvalues --   10.94516  10.96194  11.00027  11.01332  11.04180
 Alpha virt. eigenvalues --   11.09065  11.54213  11.56805  11.59857  11.62315
 Alpha virt. eigenvalues --   11.86125  11.89836  11.93047  11.95110  11.97180
 Alpha virt. eigenvalues --   11.99619  12.07574  12.12271  12.17683  12.21370
 Alpha virt. eigenvalues --   12.67567  12.72276  13.62107  13.80901  28.93101
 Alpha virt. eigenvalues --   41.82782  41.95716  42.14096  47.69203  47.88870
 Alpha virt. eigenvalues --   98.65177 250.71296 250.94483 524.83261
  Beta  occ. eigenvalues -- -102.88188 -19.69944 -19.69942 -10.01683  -7.74157
  Beta  occ. eigenvalues --   -7.73869  -7.73097  -1.32215  -1.18057  -0.82849
  Beta  occ. eigenvalues --   -0.62135  -0.60981  -0.59947  -0.43718  -0.43111
  Beta  occ. eigenvalues --   -0.40949
  Beta virt. eigenvalues --   -0.12249   0.01185   0.01385   0.01784   0.02497
  Beta virt. eigenvalues --    0.05578   0.07300   0.08021   0.08409   0.08833
  Beta virt. eigenvalues --    0.10207   0.10881   0.13336   0.17551   0.19860
  Beta virt. eigenvalues --    0.20356   0.20758   0.23740   0.27136   0.28239
  Beta virt. eigenvalues --    0.28335   0.31703   0.35483   0.35907   0.36658
  Beta virt. eigenvalues --    0.38686   0.39313   0.42012   0.43770   0.44937
  Beta virt. eigenvalues --    0.45989   0.46334   0.47251   0.49647   0.51091
  Beta virt. eigenvalues --    0.54239   0.59460   0.60577   0.62621   0.62981
  Beta virt. eigenvalues --    0.65779   0.66269   0.72676   0.74388   0.78066
  Beta virt. eigenvalues --    1.01487   1.02984   1.12615   1.17114   1.17359
  Beta virt. eigenvalues --    1.17573   1.20780   1.22897   1.24267   1.26690
  Beta virt. eigenvalues --    1.33177   1.35146   1.37208   1.40796   1.41674
  Beta virt. eigenvalues --    1.45545   1.48511   1.52584   1.53096   1.55837
  Beta virt. eigenvalues --    1.60381   1.62427   1.62530   1.63284   1.66227
  Beta virt. eigenvalues --    1.84647   1.95725   1.95821   1.96628   1.99206
  Beta virt. eigenvalues --    2.13461   2.21213   2.26629   2.66659   2.94692
  Beta virt. eigenvalues --    3.01968   3.02582   3.03108   3.07794   3.13743
  Beta virt. eigenvalues --    3.17225   3.18742   3.20036   3.22811   3.23349
  Beta virt. eigenvalues --    3.25515   3.29833   3.38567   3.40773   3.45586
  Beta virt. eigenvalues --    3.55153   3.55780   3.63803   3.66859   3.76777
  Beta virt. eigenvalues --    3.79728   3.85027   3.86048   3.87984   3.95306
  Beta virt. eigenvalues --    4.00259   4.00520   4.03538   4.07042   4.08945
  Beta virt. eigenvalues --    4.10628   4.12622   4.14390   4.19067   4.27031
  Beta virt. eigenvalues --    4.28060   4.36318   4.39240   4.39711   4.48202
  Beta virt. eigenvalues --    4.54767   4.66881   4.75997   4.92717   4.95708
  Beta virt. eigenvalues --    4.99108   5.06622   5.09593   5.21944   5.38771
  Beta virt. eigenvalues --    5.48092   5.53339   5.57661   7.23138   7.42063
  Beta virt. eigenvalues --    8.47719   8.72130   8.72310   8.74236   8.75481
  Beta virt. eigenvalues --    8.75533   8.75541   8.75596   8.77613   8.82470
  Beta virt. eigenvalues --    8.90846   8.91518   9.06886   9.07423   9.25333
  Beta virt. eigenvalues --    9.32505   9.38334   9.41973   9.49354  10.67007
  Beta virt. eigenvalues --   10.70601  10.76828  10.79732  10.80033  10.80280
  Beta virt. eigenvalues --   10.81326  10.96075  10.98162  11.02003  11.02101
  Beta virt. eigenvalues --   11.06933  11.09163  11.57102  11.59420  11.59505
  Beta virt. eigenvalues --   11.62339  11.87363  11.90967  11.96543  11.98550
  Beta virt. eigenvalues --   12.01072  12.02794  12.10652  12.15288  12.19329
  Beta virt. eigenvalues --   12.22793  12.68426  12.73119  13.67602  13.86744
  Beta virt. eigenvalues --   28.96901  41.86501  41.96180  42.14556  47.70134
  Beta virt. eigenvalues --   47.89891  98.66541 250.69463 250.92651 524.82834
          Condensed to atoms (all electrons):
               1          2          3
     1  Cl  15.799392   0.197716   0.197716
     2  O    0.197716   8.239607  -0.034736
     3  O    0.197716  -0.034736   8.239607
          Atomic-Atomic Spin Densities.
               1          2          3
     1  Cl   0.687266  -0.157725  -0.157725
     2  O   -0.157725   0.451110   0.020706
     3  O   -0.157725   0.020706   0.451110
 Mulliken charges and spin densities:
               1          2
     1  Cl   0.805175   0.371817
     2  O   -0.402588   0.314092
     3  O   -0.402588   0.314092
 Sum of Mulliken charges =  -0.00000   1.00000
 Mulliken charges and spin densities with hydrogens summed into heavy atoms:
               1          2
     1  Cl   0.805175   0.371817
     2  O   -0.402588   0.314092
     3  O   -0.402588   0.314092
 Electronic spatial extent (au):  <R**2>=            160.1975
 Charge=             -0.0000 electrons
 Dipole moment (field-independent basis, Debye):
    X=              0.0000    Y=             -0.0000    Z=              1.9410  Tot=              1.9410
 Quadrupole moment (field-independent basis, Debye-Ang):
   XX=            -21.7439   YY=            -26.5369   ZZ=            -22.2360
   XY=             -0.0000   XZ=             -0.0000   YZ=             -0.0000
 Traceless Quadrupole moment (field-independent basis, Debye-Ang):
   XX=              1.7617   YY=             -3.0313   ZZ=              1.2696
   XY=             -0.0000   XZ=             -0.0000   YZ=             -0.0000
 Octapole moment (field-independent basis, Debye-Ang**2):
  XXX=              0.0000  YYY=              0.0000  ZZZ=              1.5140  XYY=              0.0000
  XXY=             -0.0000  XXZ=              0.1565  XZZ=              0.0000  YZZ=             -0.0000
  YYZ=              1.6484  XYZ=              0.0000
 Hexadecapole moment (field-independent basis, Debye-Ang**3):
 XXXX=            -19.3758 YYYY=           -130.2317 ZZZZ=            -39.8141 XXXY=             -0.0000
 XXXZ=             -0.0000 YYYX=             -0.0000 YYYZ=             -0.0000 ZZZX=             -0.0000
 ZZZY=              0.0000 XXYY=            -24.4098 XXZZ=            -10.0655 YYZZ=            -27.2803
 XXYZ=              0.0000 YYXZ=             -0.0000 ZZXY=             -0.0000
 N-N= 1.111741450258D+02 E-N=-1.670457736903D+03  KE= 6.093189595056D+02
                          Isotropic Fermi Contact Couplings
        Atom                 a.u.       MegaHertz       Gauss      10(-4) cm-1
     1  Cl(35)             0.05484      24.04686       8.58052       8.02117
     2  O(17)              0.05215     -31.61142     -11.27974     -10.54444
     3  O(17)              0.05215     -31.61142     -11.27974     -10.54444
 PrsmSu:  requested number of processors reduced to:  21 ShMem   1 Linda.
 --------------------------------------------------------
       Center         ----  Spin Dipole Couplings  ----
                      3XX-RR        3YY-RR        3ZZ-RR
 --------------------------------------------------------
     1   Atom        3.221002     -1.579589     -1.641413
     2   Atom        1.620212     -0.817658     -0.802554
     3   Atom        1.620212     -0.817658     -0.802554
 --------------------------------------------------------
                        XY            XZ            YZ
 --------------------------------------------------------
     1   Atom       -0.000000     -0.000000      0.000000
     2   Atom       -0.000000     -0.000000      0.013482
     3   Atom        0.000000      0.000000     -0.013482
 --------------------------------------------------------


 ---------------------------------------------------------------------------------
              Anisotropic Spin Dipole Couplings in Principal Axis System
 ---------------------------------------------------------------------------------

       Atom             a.u.   MegaHertz   Gauss  10(-4) cm-1        Axes

              Baa    -1.6414   -85.908   -30.654   -28.656  0.0000 -0.0000  1.0000
     1 Cl(35) Bbb    -1.5796   -82.672   -29.499   -27.576  0.0000  1.0000  0.0000
              Bcc     3.2210   168.580    60.153    56.232  1.0000 -0.0000 -0.0000
 
              Baa    -0.8256    59.737    21.316    19.926  0.0000  0.8628 -0.5056
     2 O(17)  Bbb    -0.7947    57.501    20.518    19.180  0.0000  0.5056  0.8628
              Bcc     1.6202  -117.237   -41.833   -39.106  1.0000 -0.0000  0.0000
 
              Baa    -0.8256    59.737    21.316    19.926 -0.0000  0.8628  0.5056
     3 O(17)  Bbb    -0.7947    57.501    20.518    19.180  0.0000 -0.5056  0.8628
              Bcc     1.6202  -117.237   -41.833   -39.106  1.0000  0.0000  0.0000
 

 ---------------------------------------------------------------------------------

 PrsmSu:  requested number of processors reduced to:  21 ShMem   1 Linda.
 No NMR shielding tensors so no spin-rotation constants.
 Leave Link  601 at Sat Apr 17 20:25:37 2021, MaxMem=   104857600 cpu:             335.6 elap:               7.4
 (Enter /s/ls4/users/knvvv/bin/g16sse/l801.exe)
 DoSCS=F DFT=T ScalE2(SS,OS)=  1.000000  1.000000
 Range of M.O.s used for correlation:     1   211
 NBasis=   211 NAE=    17 NBE=    16 NFC=     0 NFV=     0
 NROrb=    211 NOA=    17 NOB=    16 NVA=   194 NVB=   195

 **** Warning!!: The largest alpha MO coefficient is  0.36816369D+02


 **** Warning!!: The largest beta MO coefficient is  0.37673879D+02

 Leave Link  801 at Sat Apr 17 20:25:37 2021, MaxMem=   104857600 cpu:               4.4 elap:               0.1
 (Enter /s/ls4/users/knvvv/bin/g16sse/l914.exe)
 UHF ground state
 Doing stability rather than CIS.
 Two-electron integrals replicated using symmetry.
 MDV=   104857600 DFT=T DoStab=T Mixed=T DoRPA=F DoScal=F NonHer=F
 Making orbital integer symmetry assigments:
 Orbital symmetries:
 Alpha Orbitals:
       Occupied  (A1) (B2) (A1) (A1) (B1) (B2) (A1) (A1) (B2) (A1)
                 (B1) (A1) (B2) (A2) (B2) (A1) (B1)
       Virtual   (A1) (A1) (B2) (B1) (A1) (B2) (B2) (A1) (A2) (A1)
                 (B1) (B2) (B1) (A1) (A1) (B2) (A2) (B2) (A1) (B1)
                 (A1) (B2) (B1) (A1) (A1) (A2) (A1) (B1) (B2) (B1)
                 (B2) (A2) (A2) (A1) (B2) (A1) (B1) (B2) (A1) (A1)
                 (A2) (B2) (A1) (B2) (A1) (B2) (B1) (B1) (A2) (B2)
                 (A1) (A1) (B1) (B2) (A1) (A2) (A1) (B1) (B2) (A2)
                 (A1) (B2) (A1) (B1) (A2) (B2) (B1) (B2) (A1) (A1)
                 (B1) (B2) (A2) (A1) (B2) (A1) (B2) (A1) (A2) (B1)
                 (A1) (B2) (A2) (B2) (B1) (A1) (A1) (A2) (B2) (A1)
                 (B1) (B1) (A2) (A1) (A1) (B2) (B2) (A1) (B1) (B1)
                 (B1) (B2) (A1) (A1) (A2) (A1) (B2) (B1) (B2) (A2)
                 (B1) (A1) (B2) (A2) (A1) (B1) (B2) (A2) (B2) (A1)
                 (A1) (B2) (A2) (B2) (B1) (A1) (B2) (A1) (A2) (B1)
                 (B2) (A1) (A1) (B2) (A1) (A2) (B2) (B1) (A2) (A1)
                 (B2) (B1) (A1) (B1) (B2) (A1) (B2) (A2) (A2) (B1)
                 (A1) (B2) (A1) (B1) (A1) (A2) (B2) (B1) (A2) (A1)
                 (B2) (A2) (B1) (B2) (A1) (A1) (B1) (A2) (B2) (A1)
                 (B2) (A1) (A2) (B1) (A1) (B2) (A2) (B1) (B2) (A1)
                 (A1) (B2) (A1) (B2) (A1) (B1) (A1) (B2) (A1) (B2)
                 (A1) (A1) (B2) (A1)
 Beta  Orbitals:
       Occupied  (A1) (B2) (A1) (A1) (B2) (A1) (B1) (A1) (B2) (A1)
                 (A1) (B2) (B1) (B2) (A1) (A2)
       Virtual   (B1) (A1) (A1) (B2) (B1) (A1) (B2) (B2) (A1) (A2)
                 (A1) (B1) (B2) (B1) (A1) (A1) (B2) (A2) (B2) (A1)
                 (B1) (A1) (B2) (B1) (A1) (A1) (A2) (A1) (B1) (B2)
                 (B1) (B2) (A2) (A2) (A1) (B2) (A1) (B1) (B2) (A1)
                 (A1) (A2) (B2) (A1) (B2) (A1) (B2) (B1) (A2) (B1)
                 (B2) (A1) (A1) (B1) (B2) (A1) (A2) (A1) (B1) (B2)
                 (A2) (A1) (B2) (A1) (B1) (B2) (A2) (B2) (B1) (A1)
                 (A1) (B1) (B2) (A2) (A1) (B2) (A1) (B2) (A1) (A2)
                 (B1) (A1) (B2) (A2) (B2) (B1) (A1) (A1) (A2) (B2)
                 (A1) (B1) (B1) (A2) (A1) (A1) (B2) (B2) (A1) (B1)
                 (B1) (B2) (B1) (A1) (A1) (A1) (A2) (B2) (B2) (B1)
                 (A2) (B1) (A1) (B2) (A2) (A1) (B1) (B2) (A2) (B2)
                 (A1) (A1) (B2) (A2) (B2) (B1) (A1) (B2) (A1) (A2)
                 (B1) (B2) (A1) (A1) (B2) (A1) (A2) (B2) (B1) (B1)
                 (A2) (A1) (B2) (A1) (B1) (B2) (A1) (B2) (A2) (A2)
                 (B1) (A1) (B2) (A1) (B1) (A1) (A2) (B2) (A2) (B1)
                 (A1) (B2) (A2) (B1) (B2) (A1) (A1) (B1) (B2) (A2)
                 (A1) (B2) (A1) (A2) (B1) (A1) (B2) (A2) (B1) (B2)
                 (A1) (A1) (B2) (A1) (B2) (A1) (B1) (A1) (B2) (A1)
                 (B2) (A1) (A1) (B2) (A1)
    12 initial guesses have been made.
 Convergence on wavefunction:    0.001000000000000
 Davidson Disk Diagonalization:  ConvIn= 1.00D-03 SkipCon=T Conv= 1.00D-03.
 Max sub-space:  2000 roots to seek:    12 dimension of matrix:         6418
 Iteration     1 Dimension    12 NMult     0 NNew     12
 Estimated number of processors is:   19
 CISAX will form     1 AO SS matrices at one time.
 NMat=     1 NSing=     1 JSym2X= 2.
 FoFJK:  IHMeth= 1 ICntrl=       0 DoSepK=F KAlg= 0 I1Cent=           0 FoldK=F
 IRaf= 980000000 NMat=       1 IRICut=       1 DoRegI=T DoRafI=F ISym2E= 2 IDoP0=0 IntGTp=1.
 FoFCou: FMM=F IPFlag=           0 FMFlag=      100000 FMFlg1=           0
         NFxFlg=           0 DoJE=F BraDBF=F KetDBF=F FulRan=T
         wScrn=  0.000000 ICntrl=         0 IOpCl=  1 I1Cent=           0 NGrid=           0
         NMat0=    1 NMatS0=      1 NMatT0=    0 NMatD0=    1 NMtDS0=    0 NMtDT0=    0
 Integrals replicated using symmetry in FoFCou.
 CoulSu:  requested number of processors reduced to:  18 ShMem   1 Linda.
 NMat=     1 NSing=     1 JSym2X= 2.
 CoulSu:  requested number of processors reduced to:  18 ShMem   1 Linda.
 NMat=     1 NSing=     1 JSym2X= 2.
 CoulSu:  requested number of processors reduced to:  18 ShMem   1 Linda.
 NMat=     1 NSing=     1 JSym2X= 2.
 CoulSu:  requested number of processors reduced to:  18 ShMem   1 Linda.
 NMat=     1 NSing=     1 JSym2X= 2.
 CoulSu:  requested number of processors reduced to:  18 ShMem   1 Linda.
 NMat=     1 NSing=     1 JSym2X= 2.
 CoulSu:  requested number of processors reduced to:  18 ShMem   1 Linda.
 NMat=     1 NSing=     1 JSym2X= 2.
 CoulSu:  requested number of processors reduced to:  18 ShMem   1 Linda.
 NMat=     1 NSing=     1 JSym2X= 2.
 CoulSu:  requested number of processors reduced to:  18 ShMem   1 Linda.
 NMat=     1 NSing=     1 JSym2X= 2.
 CoulSu:  requested number of processors reduced to:  18 ShMem   1 Linda.
 NMat=     1 NSing=     1 JSym2X= 2.
 CoulSu:  requested number of processors reduced to:  18 ShMem   1 Linda.
 NMat=     1 NSing=     1 JSym2X= 2.
 CoulSu:  requested number of processors reduced to:  18 ShMem   1 Linda.
 NMat=     1 NSing=     1 JSym2X= 2.
 CoulSu:  requested number of processors reduced to:  18 ShMem   1 Linda.
 New state      1 was old state      3
 Excitation Energies [eV] at current iteration:
 Root      1 :     3.431677174365961
 Root      2 :     3.512206268934420
 Root      3 :     5.806710798383938
 Root      4 :     6.439991430769113
 Root      5 :     7.653287043333391
 Root      6 :     7.779450530555221
 Root      7 :     8.165216911392694
 Root      8 :     8.269071643701636
 Root      9 :     8.564486079368688
 Root     10 :     8.793535740850002
 Root     11 :     9.218332315069814
 Root     12 :     9.346660049353240
 Iteration     2 Dimension    24 NMult    12 NNew     12
 Estimated number of processors is:   19
 CISAX will form     1 AO SS matrices at one time.
 NMat=     1 NSing=     1 JSym2X= 2.
 CoulSu:  requested number of processors reduced to:  18 ShMem   1 Linda.
 NMat=     1 NSing=     1 JSym2X= 2.
 CoulSu:  requested number of processors reduced to:  18 ShMem   1 Linda.
 NMat=     1 NSing=     1 JSym2X= 2.
 CoulSu:  requested number of processors reduced to:  18 ShMem   1 Linda.
 NMat=     1 NSing=     1 JSym2X= 2.
 CoulSu:  requested number of processors reduced to:  18 ShMem   1 Linda.
 NMat=     1 NSing=     1 JSym2X= 2.
 CoulSu:  requested number of processors reduced to:  18 ShMem   1 Linda.
 NMat=     1 NSing=     1 JSym2X= 2.
 CoulSu:  requested number of processors reduced to:  18 ShMem   1 Linda.
 NMat=     1 NSing=     1 JSym2X= 2.
 CoulSu:  requested number of processors reduced to:  18 ShMem   1 Linda.
 NMat=     1 NSing=     1 JSym2X= 2.
 CoulSu:  requested number of processors reduced to:  18 ShMem   1 Linda.
 NMat=     1 NSing=     1 JSym2X= 2.
 CoulSu:  requested number of processors reduced to:  18 ShMem   1 Linda.
 NMat=     1 NSing=     1 JSym2X= 2.
 CoulSu:  requested number of processors reduced to:  18 ShMem   1 Linda.
 NMat=     1 NSing=     1 JSym2X= 2.
 CoulSu:  requested number of processors reduced to:  18 ShMem   1 Linda.
 NMat=     1 NSing=     1 JSym2X= 2.
 CoulSu:  requested number of processors reduced to:  18 ShMem   1 Linda.
 New state      1 was old state      6
 Root      1 not converged, maximum delta is    0.130242540585969
 Excitation Energies [eV] at current iteration:
 Root      1 :     2.943716398436202   Change is   -4.835734132119019
 Root      2 :     3.000645189577491   Change is   -0.431031984788469
 Root      3 :     3.003689890530213   Change is   -0.508516378404206
 Root      4 :     5.123510230123245   Change is   -0.683200568260693
 Root      5 :     5.919050739217533   Change is   -0.520940691551580
 Root      6 :     7.152573173011012   Change is   -1.116498470690625
 Root      7 :     7.439883461169953   Change is   -0.213403582163438
 Root      8 :     8.097522722361331   Change is   -0.067694189031362
 Root      9 :     8.284136023657966   Change is   -0.934196291411848
 Root     10 :     8.383641351313873   Change is   -0.180844728054814
 Root     11 :     8.561291974688830   Change is   -0.232243766161172
 Root     12 :     9.137976565119301   Change is   -0.208683484233939
 Iteration     3 Dimension    27 NMult    24 NNew      3
 Estimated number of processors is:   19
 CISAX will form     1 AO SS matrices at one time.
 NMat=     1 NSing=     1 JSym2X= 2.
 CoulSu:  requested number of processors reduced to:  18 ShMem   1 Linda.
 NMat=     1 NSing=     1 JSym2X= 2.
 CoulSu:  requested number of processors reduced to:  18 ShMem   1 Linda.
 NMat=     1 NSing=     1 JSym2X= 2.
 CoulSu:  requested number of processors reduced to:  18 ShMem   1 Linda.
 Root      1 not converged, maximum delta is    0.065152106666829
 Excitation Energies [eV] at current iteration:
 Root      1 :     2.616917428639828   Change is   -0.326798969796374
 Root      2 :     2.976257354509969   Change is   -0.027432536020244
 Root      3 :     2.986970903388149   Change is   -0.013674286189342
 Iteration     4 Dimension    30 NMult    27 NNew      3
 Estimated number of processors is:   19
 CISAX will form     1 AO SS matrices at one time.
 NMat=     1 NSing=     1 JSym2X= 2.
 CoulSu:  requested number of processors reduced to:  18 ShMem   1 Linda.
 NMat=     1 NSing=     1 JSym2X= 2.
 CoulSu:  requested number of processors reduced to:  18 ShMem   1 Linda.
 NMat=     1 NSing=     1 JSym2X= 2.
 CoulSu:  requested number of processors reduced to:  18 ShMem   1 Linda.
 Root      1 not converged, maximum delta is    0.013809257149083
 Excitation Energies [eV] at current iteration:
 Root      1 :     2.587913696221933   Change is   -0.029003732417895
 Root      2 :     2.975156599549798   Change is   -0.001100754960171
 Root      3 :     2.985981683162298   Change is   -0.000989220225851
 Iteration     5 Dimension    33 NMult    30 NNew      3
 Estimated number of processors is:   19
 CISAX will form     1 AO SS matrices at one time.
 NMat=     1 NSing=     1 JSym2X= 2.
 CoulSu:  requested number of processors reduced to:  18 ShMem   1 Linda.
 NMat=     1 NSing=     1 JSym2X= 2.
 CoulSu:  requested number of processors reduced to:  18 ShMem   1 Linda.
 NMat=     1 NSing=     1 JSym2X= 2.
 CoulSu:  requested number of processors reduced to:  18 ShMem   1 Linda.
 Root      1 not converged, maximum delta is    0.008642692905871
 Excitation Energies [eV] at current iteration:
 Root      1 :     2.581861153685583   Change is   -0.006052542536350
 Root      2 :     2.975060449652284   Change is   -0.000096149897514
 Root      3 :     2.985926143337358   Change is   -0.000055539824940
 Iteration     6 Dimension    36 NMult    33 NNew      3
 Estimated number of processors is:   19
 CISAX will form     1 AO SS matrices at one time.
 NMat=     1 NSing=     1 JSym2X= 2.
 CoulSu:  requested number of processors reduced to:  18 ShMem   1 Linda.
 NMat=     1 NSing=     1 JSym2X= 2.
 CoulSu:  requested number of processors reduced to:  18 ShMem   1 Linda.
 NMat=     1 NSing=     1 JSym2X= 2.
 CoulSu:  requested number of processors reduced to:  18 ShMem   1 Linda.
 Root      1 not converged, maximum delta is    0.005498835427292
 Excitation Energies [eV] at current iteration:
 Root      1 :     2.580069023004051   Change is   -0.001792130681532
 Root      2 :     2.975054749984118   Change is   -0.000005699668166
 Root      3 :     2.985922978091183   Change is   -0.000003165246176
 Iteration     7 Dimension    39 NMult    36 NNew      3
 Estimated number of processors is:   19
 CISAX will form     1 AO SS matrices at one time.
 NMat=     1 NSing=     1 JSym2X= 2.
 CoulSu:  requested number of processors reduced to:  18 ShMem   1 Linda.
 NMat=     1 NSing=     1 JSym2X= 2.
 CoulSu:  requested number of processors reduced to:  18 ShMem   1 Linda.
 NMat=     1 NSing=     1 JSym2X= 2.
 CoulSu:  requested number of processors reduced to:  18 ShMem   1 Linda.
 Root      1 not converged, maximum delta is    0.001339732898711
 Excitation Energies [eV] at current iteration:
 Root      1 :     2.579874178314291   Change is   -0.000194844689760
 Root      2 :     2.975054460841751   Change is   -0.000000289142367
 Root      3 :     2.985922867283243   Change is   -0.000000110807940
 Iteration     8 Dimension    42 NMult    39 NNew      3
 Estimated number of processors is:   19
 CISAX will form     1 AO SS matrices at one time.
 NMat=     1 NSing=     1 JSym2X= 2.
 CoulSu:  requested number of processors reduced to:  18 ShMem   1 Linda.
 NMat=     1 NSing=     1 JSym2X= 2.
 CoulSu:  requested number of processors reduced to:  18 ShMem   1 Linda.
 NMat=     1 NSing=     1 JSym2X= 2.
 CoulSu:  requested number of processors reduced to:  18 ShMem   1 Linda.
 Root      1 has converged.
 Excitation Energies [eV] at current iteration:
 Root      1 :     2.579856717995589   Change is   -0.000017460318702
 Root      2 :     2.975054440252623   Change is   -0.000000020589128
 Root      3 :     2.985922861811069   Change is   -0.000000005472174
 Convergence achieved on expansion vectors.
 ***********************************************************************
 Stability analysis using <AA,BB:AA,BB> singles matrix:
 ***********************************************************************
 1PDM for each excited state written to RWF  633
 Ground to excited state transition densities written to RWF  633

 Eigenvectors of the stability matrix:
 
 Eigenvector   1:  2.046-B2   Eigenvalue= 0.0948080  <S**2>=0.796
     15A -> 18A        0.16809
     15A -> 22A       -0.11490
     16A -> 20A       -0.10757
     16A -> 23A       -0.13779
     16B -> 17B        0.91335
 The wavefunction is stable under the perturbations considered.
 Leave Link  914 at Sat Apr 17 20:28:51 2021, MaxMem=   104857600 cpu:            7591.9 elap:             194.1
 (Enter /s/ls4/users/knvvv/bin/g16sse/l508.exe)
 The wavefunction is already stable.
 Leave Link  508 at Sat Apr 17 20:28:53 2021, MaxMem=   104857600 cpu:               4.7 elap:               1.2
 (Enter /s/ls4/users/knvvv/bin/g16sse/l601.exe)
 Copying SCF densities to generalized density rwf, IOpCl= 1 IROHF=0.

 **********************************************************************

            Population analysis using the SCF density.

 **********************************************************************

 Orbital symmetries:
 Alpha Orbitals:
       Occupied  (A1) (B2) (A1) (A1) (B1) (B2) (A1) (A1) (B2) (A1)
                 (B1) (A1) (B2) (A2) (B2) (A1) (B1)
       Virtual   (A1) (A1) (B2) (B1) (A1) (B2) (B2) (A1) (A2) (A1)
                 (B1) (B2) (B1) (A1) (A1) (B2) (A2) (B2) (A1) (B1)
                 (A1) (B2) (B1) (A1) (A1) (A2) (A1) (B1) (B2) (B1)
                 (B2) (A2) (A2) (A1) (B2) (A1) (B1) (B2) (A1) (A1)
                 (A2) (B2) (A1) (B2) (A1) (B2) (B1) (B1) (A2) (B2)
                 (A1) (A1) (B1) (B2) (A1) (A2) (A1) (B1) (B2) (A2)
                 (A1) (B2) (A1) (B1) (A2) (B2) (B1) (B2) (A1) (A1)
                 (B1) (B2) (A2) (A1) (B2) (A1) (B2) (A1) (A2) (B1)
                 (A1) (B2) (A2) (B2) (B1) (A1) (A1) (A2) (B2) (A1)
                 (B1) (B1) (A2) (A1) (A1) (B2) (B2) (A1) (B1) (B1)
                 (B1) (B2) (A1) (A1) (A2) (A1) (B2) (B1) (B2) (A2)
                 (B1) (A1) (B2) (A2) (A1) (B1) (B2) (A2) (B2) (A1)
                 (A1) (B2) (A2) (B2) (B1) (A1) (B2) (A1) (A2) (B1)
                 (B2) (A1) (A1) (B2) (A1) (A2) (B2) (B1) (A2) (A1)
                 (B2) (B1) (A1) (B1) (B2) (A1) (B2) (A2) (A2) (B1)
                 (A1) (B2) (A1) (B1) (A1) (A2) (B2) (B1) (A2) (A1)
                 (B2) (A2) (B1) (B2) (A1) (A1) (B1) (A2) (B2) (A1)
                 (B2) (A1) (A2) (B1) (A1) (B2) (A2) (B1) (B2) (A1)
                 (A1) (B2) (A1) (B2) (A1) (B1) (A1) (B2) (A1) (B2)
                 (A1) (A1) (B2) (A1)
 Beta  Orbitals:
       Occupied  (A1) (B2) (A1) (A1) (B2) (A1) (B1) (A1) (B2) (A1)
                 (A1) (B2) (B1) (B2) (A1) (A2)
       Virtual   (B1) (A1) (A1) (B2) (B1) (A1) (B2) (B2) (A1) (A2)
                 (A1) (B1) (B2) (B1) (A1) (A1) (B2) (A2) (B2) (A1)
                 (B1) (A1) (B2) (B1) (A1) (A1) (A2) (A1) (B1) (B2)
                 (B1) (B2) (A2) (A2) (A1) (B2) (A1) (B1) (B2) (A1)
                 (A1) (A2) (B2) (A1) (B2) (A1) (B2) (B1) (A2) (B1)
                 (B2) (A1) (A1) (B1) (B2) (A1) (A2) (A1) (B1) (B2)
                 (A2) (A1) (B2) (A1) (B1) (B2) (A2) (B2) (B1) (A1)
                 (A1) (B1) (B2) (A2) (A1) (B2) (A1) (B2) (A1) (A2)
                 (B1) (A1) (B2) (A2) (B2) (B1) (A1) (A1) (A2) (B2)
                 (A1) (B1) (B1) (A2) (A1) (A1) (B2) (B2) (A1) (B1)
                 (B1) (B2) (B1) (A1) (A1) (A1) (A2) (B2) (B2) (B1)
                 (A2) (B1) (A1) (B2) (A2) (A1) (B1) (B2) (A2) (B2)
                 (A1) (A1) (B2) (A2) (B2) (B1) (A1) (B2) (A1) (A2)
                 (B1) (B2) (A1) (A1) (B2) (A1) (A2) (B2) (B1) (B1)
                 (A2) (A1) (B2) (A1) (B1) (B2) (A1) (B2) (A2) (A2)
                 (B1) (A1) (B2) (A1) (B1) (A1) (A2) (B2) (A2) (B1)
                 (A1) (B2) (A2) (B1) (B2) (A1) (A1) (B1) (B2) (A2)
                 (A1) (B2) (A1) (A2) (B1) (A1) (B2) (A2) (B1) (B2)
                 (A1) (A1) (B2) (A1) (B2) (A1) (B1) (A1) (B2) (A1)
                 (B2) (A1) (A1) (B2) (A1)
 The electronic state is 2-B1.
 Alpha  occ. eigenvalues -- -102.88721 -19.70743 -19.70742 -10.01875  -7.74597
 Alpha  occ. eigenvalues --   -7.74295  -7.74007  -1.34099  -1.20362  -0.86359
 Alpha  occ. eigenvalues --   -0.65230  -0.63300  -0.62624  -0.50114  -0.44933
 Alpha  occ. eigenvalues --   -0.44563  -0.35292
 Alpha virt. eigenvalues --    0.00641   0.01096   0.01571   0.02092   0.04894
 Alpha virt. eigenvalues --    0.06810   0.07831   0.08437   0.08617   0.09890
 Alpha virt. eigenvalues --    0.10145   0.13239   0.17619   0.19745   0.20002
 Alpha virt. eigenvalues --    0.20445   0.23168   0.26905   0.27942   0.28407
 Alpha virt. eigenvalues --    0.32092   0.35381   0.36110   0.36574   0.39063
 Alpha virt. eigenvalues --    0.39193   0.41406   0.42592   0.44817   0.45144
 Alpha virt. eigenvalues --    0.46217   0.46753   0.47976   0.50565   0.54247
 Alpha virt. eigenvalues --    0.59462   0.61190   0.62611   0.62678   0.65701
 Alpha virt. eigenvalues --    0.65907   0.72557   0.73974   0.77927   1.01211
 Alpha virt. eigenvalues --    1.02573   1.10654   1.16164   1.16297   1.17351
 Alpha virt. eigenvalues --    1.19957   1.22371   1.23719   1.26292   1.33059
 Alpha virt. eigenvalues --    1.34511   1.36865   1.39904   1.41373   1.44521
 Alpha virt. eigenvalues --    1.48193   1.52065   1.52729   1.54495   1.60125
 Alpha virt. eigenvalues --    1.60172   1.61761   1.62115   1.65774   1.84488
 Alpha virt. eigenvalues --    1.95249   1.95661   1.96478   1.99070   2.13527
 Alpha virt. eigenvalues --    2.20848   2.26412   2.65624   2.94352   3.01506
 Alpha virt. eigenvalues --    3.02116   3.02994   3.07461   3.13471   3.16255
 Alpha virt. eigenvalues --    3.18287   3.19043   3.21439   3.22856   3.25429
 Alpha virt. eigenvalues --    3.28867   3.37823   3.40546   3.45317   3.54237
 Alpha virt. eigenvalues --    3.55563   3.62609   3.66179   3.75362   3.77270
 Alpha virt. eigenvalues --    3.83624   3.85080   3.86248   3.94878   3.98698
 Alpha virt. eigenvalues --    3.99119   4.02875   4.06030   4.06168   4.09367
 Alpha virt. eigenvalues --    4.11097   4.13323   4.18109   4.26267   4.27152
 Alpha virt. eigenvalues --    4.35389   4.37839   4.39093   4.48059   4.54311
 Alpha virt. eigenvalues --    4.65940   4.75216   4.91662   4.95410   4.98030
 Alpha virt. eigenvalues --    5.06724   5.09820   5.22091   5.36570   5.46445
 Alpha virt. eigenvalues --    5.53183   5.57429   7.23317   7.42102   8.46519
 Alpha virt. eigenvalues --    8.71815   8.71857   8.73883   8.74034   8.74046
 Alpha virt. eigenvalues --    8.74049   8.74067   8.77261   8.82413   8.91217
 Alpha virt. eigenvalues --    8.91859   9.06497   9.07847   9.24794   9.32275
 Alpha virt. eigenvalues --    9.37695   9.42842   9.49654  10.64782  10.68946
 Alpha virt. eigenvalues --   10.74159  10.75515  10.76701  10.76811  10.77368
 Alpha virt. eigenvalues --   10.94516  10.96194  11.00027  11.01332  11.04180
 Alpha virt. eigenvalues --   11.09065  11.54213  11.56805  11.59857  11.62315
 Alpha virt. eigenvalues --   11.86125  11.89836  11.93047  11.95110  11.97180
 Alpha virt. eigenvalues --   11.99619  12.07574  12.12271  12.17683  12.21370
 Alpha virt. eigenvalues --   12.67567  12.72276  13.62107  13.80901  28.93101
 Alpha virt. eigenvalues --   41.82782  41.95716  42.14096  47.69203  47.88870
 Alpha virt. eigenvalues --   98.65177 250.71296 250.94483 524.83261
  Beta  occ. eigenvalues -- -102.88188 -19.69944 -19.69942 -10.01683  -7.74157
  Beta  occ. eigenvalues --   -7.73869  -7.73097  -1.32215  -1.18057  -0.82849
  Beta  occ. eigenvalues --   -0.62135  -0.60981  -0.59947  -0.43718  -0.43111
  Beta  occ. eigenvalues --   -0.40949
  Beta virt. eigenvalues --   -0.12249   0.01185   0.01385   0.01784   0.02497
  Beta virt. eigenvalues --    0.05578   0.07300   0.08021   0.08409   0.08833
  Beta virt. eigenvalues --    0.10207   0.10881   0.13336   0.17551   0.19860
  Beta virt. eigenvalues --    0.20356   0.20758   0.23740   0.27136   0.28239
  Beta virt. eigenvalues --    0.28335   0.31703   0.35483   0.35907   0.36658
  Beta virt. eigenvalues --    0.38686   0.39313   0.42012   0.43770   0.44937
  Beta virt. eigenvalues --    0.45989   0.46334   0.47251   0.49647   0.51091
  Beta virt. eigenvalues --    0.54239   0.59460   0.60577   0.62621   0.62981
  Beta virt. eigenvalues --    0.65779   0.66269   0.72676   0.74388   0.78066
  Beta virt. eigenvalues --    1.01487   1.02984   1.12615   1.17114   1.17359
  Beta virt. eigenvalues --    1.17573   1.20780   1.22897   1.24267   1.26690
  Beta virt. eigenvalues --    1.33177   1.35146   1.37208   1.40796   1.41674
  Beta virt. eigenvalues --    1.45545   1.48511   1.52584   1.53096   1.55837
  Beta virt. eigenvalues --    1.60381   1.62427   1.62530   1.63284   1.66227
  Beta virt. eigenvalues --    1.84647   1.95725   1.95821   1.96628   1.99206
  Beta virt. eigenvalues --    2.13461   2.21213   2.26629   2.66659   2.94692
  Beta virt. eigenvalues --    3.01968   3.02582   3.03108   3.07794   3.13743
  Beta virt. eigenvalues --    3.17225   3.18742   3.20036   3.22811   3.23349
  Beta virt. eigenvalues --    3.25515   3.29833   3.38567   3.40773   3.45586
  Beta virt. eigenvalues --    3.55153   3.55780   3.63803   3.66859   3.76777
  Beta virt. eigenvalues --    3.79728   3.85027   3.86048   3.87984   3.95306
  Beta virt. eigenvalues --    4.00259   4.00520   4.03538   4.07042   4.08945
  Beta virt. eigenvalues --    4.10628   4.12622   4.14390   4.19067   4.27031
  Beta virt. eigenvalues --    4.28060   4.36318   4.39240   4.39711   4.48202
  Beta virt. eigenvalues --    4.54767   4.66881   4.75997   4.92717   4.95708
  Beta virt. eigenvalues --    4.99108   5.06622   5.09593   5.21944   5.38771
  Beta virt. eigenvalues --    5.48092   5.53339   5.57661   7.23138   7.42063
  Beta virt. eigenvalues --    8.47719   8.72130   8.72310   8.74236   8.75481
  Beta virt. eigenvalues --    8.75533   8.75541   8.75596   8.77613   8.82470
  Beta virt. eigenvalues --    8.90846   8.91518   9.06886   9.07423   9.25333
  Beta virt. eigenvalues --    9.32505   9.38334   9.41973   9.49354  10.67007
  Beta virt. eigenvalues --   10.70601  10.76828  10.79732  10.80033  10.80280
  Beta virt. eigenvalues --   10.81326  10.96075  10.98162  11.02003  11.02101
  Beta virt. eigenvalues --   11.06933  11.09163  11.57102  11.59420  11.59505
  Beta virt. eigenvalues --   11.62339  11.87363  11.90967  11.96543  11.98550
  Beta virt. eigenvalues --   12.01072  12.02794  12.10652  12.15288  12.19329
  Beta virt. eigenvalues --   12.22793  12.68426  12.73119  13.67602  13.86744
  Beta virt. eigenvalues --   28.96901  41.86501  41.96180  42.14556  47.70134
  Beta virt. eigenvalues --   47.89891  98.66541 250.69463 250.92651 524.82834
          Condensed to atoms (all electrons):
               1          2          3
     1  Cl  15.799392   0.197716   0.197716
     2  O    0.197716   8.239607  -0.034736
     3  O    0.197716  -0.034736   8.239607
          Atomic-Atomic Spin Densities.
               1          2          3
     1  Cl   0.687266  -0.157725  -0.157725
     2  O   -0.157725   0.451110   0.020706
     3  O   -0.157725   0.020706   0.451110
 Mulliken charges and spin densities:
               1          2
     1  Cl   0.805175   0.371817
     2  O   -0.402588   0.314092
     3  O   -0.402588   0.314092
 Sum of Mulliken charges =  -0.00000   1.00000
 Mulliken charges and spin densities with hydrogens summed into heavy atoms:
               1          2
     1  Cl   0.805175   0.371817
     2  O   -0.402588   0.314092
     3  O   -0.402588   0.314092
 Electronic spatial extent (au):  <R**2>=            160.1975
 Charge=             -0.0000 electrons
 Dipole moment (field-independent basis, Debye):
    X=              0.0000    Y=             -0.0000    Z=              1.9410  Tot=              1.9410
 Quadrupole moment (field-independent basis, Debye-Ang):
   XX=            -21.7439   YY=            -26.5369   ZZ=            -22.2360
   XY=             -0.0000   XZ=             -0.0000   YZ=             -0.0000
 Traceless Quadrupole moment (field-independent basis, Debye-Ang):
   XX=              1.7617   YY=             -3.0313   ZZ=              1.2696
   XY=             -0.0000   XZ=             -0.0000   YZ=             -0.0000
 Octapole moment (field-independent basis, Debye-Ang**2):
  XXX=              0.0000  YYY=              0.0000  ZZZ=              1.5140  XYY=              0.0000
  XXY=             -0.0000  XXZ=              0.1565  XZZ=              0.0000  YZZ=             -0.0000
  YYZ=              1.6484  XYZ=              0.0000
 Hexadecapole moment (field-independent basis, Debye-Ang**3):
 XXXX=            -19.3758 YYYY=           -130.2317 ZZZZ=            -39.8141 XXXY=             -0.0000
 XXXZ=             -0.0000 YYYX=             -0.0000 YYYZ=             -0.0000 ZZZX=             -0.0000
 ZZZY=              0.0000 XXYY=            -24.4098 XXZZ=            -10.0655 YYZZ=            -27.2803
 XXYZ=              0.0000 YYXZ=             -0.0000 ZZXY=             -0.0000
 N-N= 1.111741450258D+02 E-N=-1.670457736903D+03  KE= 6.093189595056D+02
                          Isotropic Fermi Contact Couplings
        Atom                 a.u.       MegaHertz       Gauss      10(-4) cm-1
     1  Cl(35)             0.05484      24.04686       8.58052       8.02117
     2  O(17)              0.05215     -31.61142     -11.27974     -10.54444
     3  O(17)              0.05215     -31.61142     -11.27974     -10.54444
 PrsmSu:  requested number of processors reduced to:  21 ShMem   1 Linda.
 --------------------------------------------------------
       Center         ----  Spin Dipole Couplings  ----
                      3XX-RR        3YY-RR        3ZZ-RR
 --------------------------------------------------------
     1   Atom        3.221002     -1.579589     -1.641413
     2   Atom        1.620212     -0.817658     -0.802554
     3   Atom        1.620212     -0.817658     -0.802554
 --------------------------------------------------------
                        XY            XZ            YZ
 --------------------------------------------------------
     1   Atom       -0.000000     -0.000000      0.000000
     2   Atom       -0.000000     -0.000000      0.013482
     3   Atom        0.000000      0.000000     -0.013482
 --------------------------------------------------------


 ---------------------------------------------------------------------------------
              Anisotropic Spin Dipole Couplings in Principal Axis System
 ---------------------------------------------------------------------------------

       Atom             a.u.   MegaHertz   Gauss  10(-4) cm-1        Axes

              Baa    -1.6414   -85.908   -30.654   -28.656  0.0000 -0.0000  1.0000
     1 Cl(35) Bbb    -1.5796   -82.672   -29.499   -27.576  0.0000  1.0000  0.0000
              Bcc     3.2210   168.580    60.153    56.232  1.0000 -0.0000 -0.0000
 
              Baa    -0.8256    59.737    21.316    19.926  0.0000  0.8628 -0.5056
     2 O(17)  Bbb    -0.7947    57.501    20.518    19.180  0.0000  0.5056  0.8628
              Bcc     1.6202  -117.237   -41.833   -39.106  1.0000 -0.0000  0.0000
 
              Baa    -0.8256    59.737    21.316    19.926 -0.0000  0.8628  0.5056
     3 O(17)  Bbb    -0.7947    57.501    20.518    19.180  0.0000 -0.5056  0.8628
              Bcc     1.6202  -117.237   -41.833   -39.106  1.0000  0.0000  0.0000
 

 ---------------------------------------------------------------------------------

 PrsmSu:  requested number of processors reduced to:  21 ShMem   1 Linda.
 No NMR shielding tensors so no spin-rotation constants.
 Leave Link  601 at Sat Apr 17 20:29:01 2021, MaxMem=   104857600 cpu:             394.1 elap:               8.6
 (Enter /s/ls4/users/knvvv/bin/g16sse/l9999.exe)

 Test job not archived.
 1\1\GINC-N303\Stability\UM062X\Gen\Cl1O2(2)\KNVVV\17-Apr-2021\0\\#P M0
 62X/GEN Integral=UltraFineGrid SCF=NoSymm Stable=(RExt, Opt) IOp(1/33=
 1)\\Database calculations.\\0,2\Cl,0,0.,0.,0.\O,0,0.,0.,1.47287094\O,0
 ,1.3066178139,0.,-0.6797784156\\Version=ES64L-G16RevA.03\State=2-B1\HF
 =-610.4854084\S2=0.758489\S2-1=0.\S2A=0.750041\RMSD=3.656e-09\Dipole=-
 0.6527885,0.,-0.3962304\Quadrupole=0.0830053,1.3098084,-1.3928137,0.,1
 .4183529,0.\PG=C02V [C2(Cl1),SGV(O2)]\\@


 "I COULD HAVE DONE IT IN A MUCH MORE COMPLICATED WAY"
 SAID THE RED QUEEN, IMMENSELY PROUD.

                                      -- LEWIS CARROLL
 Job cpu time:       0 days  6 hours 44 minutes  4.4 seconds.
 Elapsed time:       0 days  0 hours  9 minutes 17.0 seconds.
 File lengths (MBytes):  RWF=    172 Int=      0 D2E=      0 Chk=      7 Scr=      1
 Normal termination of Gaussian 16 at Sat Apr 17 20:29:02 2021.
