 Entering Gaussian System, Link 0=/s/ls4/users/knvvv/bin/g16sse/g16
 Input=data/database/M062X--def2-QZVPPD--251_t-hooo_W4-11.gjf
 Output=data/database/M062X--def2-QZVPPD--251_t-hooo_W4-11.log
 Initial command:
 /s/ls4/users/knvvv/bin/g16sse/l1.exe "/s/ls4/users/knvvv/bin/scratch/Gau-32798.inp" -scrdir="/s/ls4/users/knvvv/bin/scratch/"
 Entering Link 1 = /s/ls4/users/knvvv/bin/g16sse/l1.exe PID=     32799.
  
 Copyright (c) 1988,1990,1992,1993,1995,1998,2003,2009,2016,
            Gaussian, Inc.  All Rights Reserved.
  
 This is part of the Gaussian(R) 16 program.  It is based on
 the Gaussian(R) 09 system (copyright 2009, Gaussian, Inc.),
 the Gaussian(R) 03 system (copyright 2003, Gaussian, Inc.),
 the Gaussian(R) 98 system (copyright 1998, Gaussian, Inc.),
 the Gaussian(R) 94 system (copyright 1995, Gaussian, Inc.),
 the Gaussian 92(TM) system (copyright 1992, Gaussian, Inc.),
 the Gaussian 90(TM) system (copyright 1990, Gaussian, Inc.),
 the Gaussian 88(TM) system (copyright 1988, Gaussian, Inc.),
 the Gaussian 86(TM) system (copyright 1986, Carnegie Mellon
 University), and the Gaussian 82(TM) system (copyright 1983,
 Carnegie Mellon University). Gaussian is a federally registered
 trademark of Gaussian, Inc.
  
 This software contains proprietary and confidential information,
 including trade secrets, belonging to Gaussian, Inc.
  
 This software is provided under written license and may be
 used, copied, transmitted, or stored only in accord with that
 written license.
  
 The following legend is applicable only to US Government
 contracts under FAR:
  
                    RESTRICTED RIGHTS LEGEND
  
 Use, reproduction and disclosure by the US Government is
 subject to restrictions as set forth in subparagraphs (a)
 and (c) of the Commercial Computer Software - Restricted
 Rights clause in FAR 52.227-19.
  
 Gaussian, Inc.
 340 Quinnipiac St., Bldg. 40, Wallingford CT 06492
  
  
 ---------------------------------------------------------------
 Warning -- This program may not be used in any manner that
 competes with the business of Gaussian, Inc. or will provide
 assistance to any competitor of Gaussian, Inc.  The licensee
 of this program is prohibited from giving any competitor of
 Gaussian, Inc. access to this program.  By using this program,
 the user acknowledges that Gaussian, Inc. is engaged in the
 business of creating and licensing software in the field of
 computational chemistry and represents and warrants to the
 licensee that it is not a competitor of Gaussian, Inc. and that
 it will not use this program in any manner prohibited above.
 ---------------------------------------------------------------
  

 Cite this work as:
 Gaussian 16, Revision A.03,
 M. J. Frisch, G. W. Trucks, H. B. Schlegel, G. E. Scuseria, 
 M. A. Robb, J. R. Cheeseman, G. Scalmani, V. Barone, 
 G. A. Petersson, H. Nakatsuji, X. Li, M. Caricato, A. V. Marenich, 
 J. Bloino, B. G. Janesko, R. Gomperts, B. Mennucci, H. P. Hratchian, 
 J. V. Ortiz, A. F. Izmaylov, J. L. Sonnenberg, D. Williams-Young, 
 F. Ding, F. Lipparini, F. Egidi, J. Goings, B. Peng, A. Petrone, 
 T. Henderson, D. Ranasinghe, V. G. Zakrzewski, J. Gao, N. Rega, 
 G. Zheng, W. Liang, M. Hada, M. Ehara, K. Toyota, R. Fukuda, 
 J. Hasegawa, M. Ishida, T. Nakajima, Y. Honda, O. Kitao, H. Nakai, 
 T. Vreven, K. Throssell, J. A. Montgomery, Jr., J. E. Peralta, 
 F. Ogliaro, M. J. Bearpark, J. J. Heyd, E. N. Brothers, K. N. Kudin, 
 V. N. Staroverov, T. A. Keith, R. Kobayashi, J. Normand, 
 K. Raghavachari, A. P. Rendell, J. C. Burant, S. S. Iyengar, 
 J. Tomasi, M. Cossi, J. M. Millam, M. Klene, C. Adamo, R. Cammi, 
 J. W. Ochterski, R. L. Martin, K. Morokuma, O. Farkas, 
 J. B. Foresman, and D. J. Fox, Gaussian, Inc., Wallingford CT, 2016.
 
 ******************************************
 Gaussian 16:  ES64L-G16RevA.03 25-Dec-2016
                18-Apr-2021 
 ******************************************
 %RWF=temp9_98536,70GB
 %nprocshared=48
 Will use up to   48 processors via shared memory.
 Default route: MaxDisk=80GB
 ----------------------------------------------------------------------
 #P M062X/GEN Integral=UltraFineGrid SCF=NoSymm Stable=(RExt, Opt) IOp(
 1/33=1)
 ----------------------------------------------------------------------
 1/33=1,38=1,172=1/1;
 2/12=2,17=6,18=5,40=1/2;
 3/5=7,11=2,25=1,30=1,74=-55,75=-5/1,2,3;
 4/9=2/1;
 5/5=2,38=5/2;
 6/7=2,8=2,9=2,10=2,28=1/1;
 8/6=1,10=90,11=11/1;
 9/8=-3,42=1,46=1/14;
 5/5=2,8=3,17=40,38=5/8(-2);
 6/7=2,8=2,9=2,10=2,28=1/1;
 99/5=1,9=1/99;
 Leave Link    1 at Sun Apr 18 11:12:21 2021, MaxMem=           0 cpu:               8.3 elap:               0.2
 (Enter /s/ls4/users/knvvv/bin/g16sse/l101.exe)
 ONIOM data not found on unit 2.
 ----------------------
 Database calculations.
 ----------------------
 TstMul:  ICh=     0
 TstMul:  Mul=     2
 TstMul:  ICh=     0
 TstMul:  Mul=     2
 Symbolic Z-matrix:
 Charge =  0 Multiplicity = 2
 O                     0.        0.        0. 
 O                     0.        0.        1.228 
 O                     1.49318   0.        1.76558 
 H                     1.28037   0.        2.70989 
 
 RdStrC is calling ZToCFu for IStruc=1 NZ=     4.
 PrtBox:  NBox=     1 Levels=  1 BoxLen=    8.00 SMaxX=        5.12
          Shift=            0.000000            0.000000            0.000000
 Box      1 Number                   0 centers from      1 to      4:
 After GenITR:
 ITRead=  0  0  0  0
 MicOpt= -1 -1 -1 -1
 ITRead=  0  0  0  0
 MicOpt= -1 -1 -1 -1
 NAtoms=      4 NQM=        4 NQMF=       0 NMMI=      0 NMMIF=      0
                NMic=       0 NMicF=      0.
                    Isotopes and Nuclear Properties:
 (Nuclear quadrupole moments (NQMom) in fm**2, nuclear magnetic moments (NMagM)
  in nuclear magnetons)

  Atom         1           2           3           4
 IAtWgt=          16          16          16           1
 AtmWgt=  15.9949146  15.9949146  15.9949146   1.0078250
 NucSpn=           0           0           0           1
 AtZEff=  -0.0000000  -0.0000000  -0.0000000  -0.0000000
 NQMom=    0.0000000   0.0000000   0.0000000   0.0000000
 NMagM=    0.0000000   0.0000000   0.0000000   2.7928460
 AtZNuc=   8.0000000   8.0000000   8.0000000   1.0000000
 No MM parameters found.
 Leave Link  101 at Sun Apr 18 11:12:22 2021, MaxMem=   104857600 cpu:              11.7 elap:               0.4
 (Enter /s/ls4/users/knvvv/bin/g16sse/l202.exe)
                          Input orientation:                          
 ---------------------------------------------------------------------
 Center     Atomic      Atomic             Coordinates (Angstroms)
 Number     Number       Type             X           Y           Z
 ---------------------------------------------------------------------
      1          8           0        0.000000    0.000000    0.000000
      2          8           0        0.000000    0.000000    1.228000
      3          8           0        1.493178    0.000000    1.765577
      4          1           0        1.280367    0.000000    2.709895
 ---------------------------------------------------------------------
                    Distance matrix (angstroms):
                    1          2          3          4
     1  O    0.000000
     2  O    1.228000   0.000000
     3  O    2.312324   1.587000   0.000000
     4  H    2.997143   1.958405   0.968000   0.000000
 Stoichiometry    HO3(2)
 Framework group  CS[SG(HO3)]
 Deg. of freedom     5
 Full point group                 CS      NOp   2
 Largest Abelian subgroup         CS      NOp   2
 Largest concise Abelian subgroup C1      NOp   1
                         Standard orientation:                         
 ---------------------------------------------------------------------
 Center     Atomic      Atomic             Coordinates (Angstroms)
 Number     Number       Type             X           Y           Z
 ---------------------------------------------------------------------
      1          8           0        1.174393    0.194313   -0.000000
      2          8           0       -0.000000    0.553180    0.000000
      3          8           0       -0.950471   -0.717715    0.000000
      4          1           0       -1.791374   -0.238229    0.000000
 ---------------------------------------------------------------------
 Rotational constants (GHZ):          72.8460058          10.8600111           9.4510343
 Leave Link  202 at Sun Apr 18 11:12:23 2021, MaxMem=   104857600 cpu:              12.3 elap:               0.4
 (Enter /s/ls4/users/knvvv/bin/g16sse/l301.exe)
 General basis read from cards:  (5D, 7F)
 Centers:       4
 S 4 1.00
     Exponent=  1.9069169000D+02 Coefficients=  7.0815167000D-04
     Exponent=  2.8605532000D+01 Coefficients=  5.4678827000D-03
     Exponent=  6.5095943000D+00 Coefficients=  2.7966605000D-02
     Exponent=  1.8412455000D+00 Coefficients=  1.0764538000D-01
 S 1 1.00
     Exponent=  5.9853725000D-01 Coefficients=  1.0000000000D+00
 S 1 1.00
     Exponent=  2.1397624000D-01 Coefficients=  1.0000000000D+00
 S 1 1.00
     Exponent=  8.0316286000D-02 Coefficients=  1.0000000000D+00
 P 1 1.00
     Exponent=  2.2920000000D+00 Coefficients=  1.0000000000D+00
 P 1 1.00
     Exponent=  8.3800000000D-01 Coefficients=  1.0000000000D+00
 P 1 1.00
     Exponent=  2.9200000000D-01 Coefficients=  1.0000000000D+00
 P 1 1.00
     Exponent=  8.4063199228D-02 Coefficients=  1.0000000000D+00
 D 1 1.00
     Exponent=  2.0620000000D+00 Coefficients=  1.0000000000D+00
 D 1 1.00
     Exponent=  6.6200000000D-01 Coefficients=  1.0000000000D+00
 F 1 1.00
     Exponent=  1.3970000000D+00 Coefficients=  1.0000000000D+00
 ****
 Centers:       1      2      3
 S 8 1.00
     Exponent=  1.1650646908D+05 Coefficients=  4.0383857939D-05
     Exponent=  1.7504349724D+04 Coefficients=  3.1255139004D-04
     Exponent=  3.9934513230D+03 Coefficients=  1.6341473495D-03
     Exponent=  1.1330063186D+03 Coefficients=  6.8283224757D-03
     Exponent=  3.6999569594D+02 Coefficients=  2.4124410221D-02
     Exponent=  1.3362074349D+02 Coefficients=  7.2730206154D-02
     Exponent=  5.2035643649D+01 Coefficients=  1.7934429892D-01
     Exponent=  2.1461939313D+01 Coefficients=  3.3059588895D-01
 S 2 1.00
     Exponent=  8.9835051252D+01 Coefficients=  9.6468652996D-02
     Exponent=  2.6428010844D+01 Coefficients=  9.4117481120D-01
 S 1 1.00
     Exponent=  9.2822824649D+00 Coefficients=  1.0000000000D+00
 S 1 1.00
     Exponent=  4.0947728533D+00 Coefficients=  1.0000000000D+00
 S 1 1.00
     Exponent=  1.3255349078D+00 Coefficients=  1.0000000000D+00
 S 1 1.00
     Exponent=  5.1877230787D-01 Coefficients=  1.0000000000D+00
 S 1 1.00
     Exponent=  1.9772676454D-01 Coefficients=  1.0000000000D+00
 S 1 1.00
     Exponent=  6.9638535104D-02 Coefficients=  1.0000000000D+00
 P 5 1.00
     Exponent=  1.9115255810D+02 Coefficients=  2.5115697705D-03
     Exponent=  4.5233356739D+01 Coefficients=  2.0039240864D-02
     Exponent=  1.4353465922D+01 Coefficients=  9.3609064762D-02
     Exponent=  5.2422371832D+00 Coefficients=  3.0618127124D-01
     Exponent=  2.0792418599D+00 Coefficients=  6.7810501439D-01
 P 1 1.00
     Exponent=  8.4282371424D-01 Coefficients=  1.0000000000D+00
 P 1 1.00
     Exponent=  3.3617694891D-01 Coefficients=  1.0000000000D+00
 P 1 1.00
     Exponent=  1.2863997974D-01 Coefficients=  1.0000000000D+00
 P 1 1.00
     Exponent=  4.3598162776D-02 Coefficients=  1.0000000000D+00
 D 1 1.00
     Exponent=  3.7750000000D+00 Coefficients=  1.0000000000D+00
 D 1 1.00
     Exponent=  1.3000000000D+00 Coefficients=  1.0000000000D+00
 D 1 1.00
     Exponent=  4.4400000000D-01 Coefficients=  1.0000000000D+00
 D 1 1.00
     Exponent=  1.2546378695D-01 Coefficients=  1.0000000000D+00
 F 1 1.00
     Exponent=  2.6660000000D+00 Coefficients=  1.0000000000D+00
 F 1 1.00
     Exponent=  8.5900000000D-01 Coefficients=  1.0000000000D+00
 G 1 1.00
     Exponent=  1.8460000000D+00 Coefficients=  1.0000000000D+00
 ****
 Ernie: Thresh=  0.10000D-02 Tol=  0.10000D-05 Strict=F.
 There are   191 symmetry adapted cartesian basis functions of A'  symmetry.
 There are    93 symmetry adapted cartesian basis functions of A"  symmetry.
 There are   151 symmetry adapted basis functions of A'  symmetry.
 There are    80 symmetry adapted basis functions of A"  symmetry.
   231 basis functions,   347 primitive gaussians,   284 cartesian basis functions
    13 alpha electrons       12 beta electrons
       nuclear repulsion energy        71.5137154908 Hartrees.
 IExCor= 4336 DFT=T Ex+Corr=M062X ExCW=0 ScaHFX=  0.540000
 ScaDFX=  1.000000  1.000000  1.000000  1.000000 ScalE2=  1.000000  1.000000
 IRadAn=      5 IRanWt=     -1 IRanGd=            0 ICorTp=0 IEmpDi=  4
 NAtoms=    4 NActive=    4 NUniq=    4 SFac= 1.00D+00 NAtFMM=   60 NAOKFM=F Big=F
 Integral buffers will be    131072 words long.
 Raffenetti 2 integral format.
 Two-electron integral symmetry is turned on.
 Leave Link  301 at Sun Apr 18 11:12:23 2021, MaxMem=   104857600 cpu:              14.9 elap:               0.4
 (Enter /s/ls4/users/knvvv/bin/g16sse/l302.exe)
 NPDir=0 NMtPBC=     1 NCelOv=     1 NCel=       1 NClECP=     1 NCelD=      1
         NCelK=      1 NCelE2=     1 NClLst=     1 CellRange=     0.0.
 One-electron integrals computed using PRISM.
 One-electron integral symmetry used in STVInt
 PrsmSu:  requested number of processors reduced to:   4 ShMem   1 Linda.
 PrsmSu:  requested number of processors reduced to:  21 ShMem   1 Linda.
 NBasis=   231 RedAO= T EigKep=  1.04D-04  NBF=   151    80
 NBsUse=   231 1.00D-06 EigRej= -1.00D+00 NBFU=   151    80
 Precomputing XC quadrature grid using
 IXCGrd= 4 IRadAn=           5 IRanWt=          -1 IRanGd=           0 AccXCQ= 0.00D+00.
 Generated NRdTot=       0 NPtTot=           0 NUsed=           0 NTot=          32
 NSgBfM=   282   282   282   282   282 MxSgAt=     4 MxSgA2=     4.
 Leave Link  302 at Sun Apr 18 11:12:25 2021, MaxMem=   104857600 cpu:              34.7 elap:               1.2
 (Enter /s/ls4/users/knvvv/bin/g16sse/l303.exe)
 DipDrv:  MaxL=1.
 Leave Link  303 at Sun Apr 18 11:12:27 2021, MaxMem=   104857600 cpu:              64.6 elap:               1.7
 (Enter /s/ls4/users/knvvv/bin/g16sse/l401.exe)
 SCF N**3 symmetry information disabled.
 ExpMin= 4.36D-02 ExpMax= 1.17D+05 ExpMxC= 1.13D+03 IAcc=3 IRadAn=         5 AccDes= 0.00D+00
 Harris functional with IExCor= 1009 and IRadAn=       5 diagonalized for initial guess.
 HarFok:  IExCor= 1009 AccDes= 0.00D+00 IRadAn=         5 IDoV= 1 UseB2=F ITyADJ=14
 ICtDFT=  3500011 ScaDFX=  1.000000  1.000000  1.000000  1.000000
 FoFCou: FMM=F IPFlag=           0 FMFlag=      100000 FMFlg1=           0
         NFxFlg=           0 DoJE=T BraDBF=F KetDBF=T FulRan=T
         wScrn=  0.000000 ICntrl=       500 IOpCl=  0 I1Cent=   200000004 NGrid=           0
         NMat0=    1 NMatS0=      1 NMatT0=    0 NMatD0=    1 NMtDS0=    0 NMtDT0=    0
 Petite list used in FoFCou.
 CoulSu:  requested number of processors reduced to:  21 ShMem   1 Linda.
 CoulSu:  requested number of processors reduced to:  21 ShMem   1 Linda.
 CoulSu:  requested number of processors reduced to:  21 ShMem   1 Linda.
 CoulSu:  requested number of processors reduced to:  21 ShMem   1 Linda.
 Harris En= -225.982072054042    
 JPrj=0 DoOrth=F DoCkMO=F.
 Initial guess orbital symmetries:
 Alpha Orbitals:
       Occupied  (A') (A') (A') (A') (A') (A') (A') (A') (A") (A')
                 (A") (A') (A")
       Virtual   (A') (A') (A') (A') (A") (A') (A') (A") (A") (A')
                 (A') (A') (A') (A") (A') (A') (A') (A') (A") (A')
                 (A') (A") (A') (A") (A') (A") (A') (A') (A") (A')
                 (A") (A') (A") (A') (A') (A') (A') (A") (A") (A')
                 (A') (A') (A') (A") (A') (A') (A') (A") (A') (A')
                 (A") (A') (A") (A') (A') (A") (A') (A") (A') (A")
                 (A") (A') (A') (A') (A') (A') (A') (A") (A") (A')
                 (A') (A') (A") (A') (A') (A') (A") (A') (A") (A')
                 (A') (A") (A") (A') (A') (A") (A') (A") (A') (A')
                 (A') (A") (A') (A') (A') (A") (A') (A") (A') (A')
                 (A") (A") (A") (A') (A') (A") (A") (A') (A') (A')
                 (A") (A') (A') (A") (A') (A') (A') (A") (A') (A")
                 (A') (A') (A") (A') (A') (A") (A') (A') (A') (A")
                 (A') (A") (A') (A') (A") (A') (A') (A") (A') (A")
                 (A') (A') (A") (A') (A") (A') (A") (A') (A") (A')
                 (A") (A') (A') (A") (A') (A') (A") (A') (A") (A')
                 (A') (A") (A") (A') (A') (A") (A') (A') (A") (A')
                 (A") (A") (A') (A") (A') (A') (A") (A") (A') (A')
                 (A') (A") (A') (A") (A') (A") (A') (A') (A") (A')
                 (A") (A') (A") (A") (A') (A') (A") (A') (A") (A')
                 (A') (A') (A') (A") (A') (A") (A') (A') (A') (A')
                 (A') (A') (A') (A') (A') (A') (A') (A')
 Beta  Orbitals:
       Occupied  (A') (A') (A') (A') (A') (A') (A') (A') (A") (A')
                 (A") (A')
       Virtual   (A") (A') (A') (A') (A') (A") (A') (A') (A") (A")
                 (A') (A') (A') (A') (A") (A') (A') (A') (A') (A")
                 (A') (A') (A") (A') (A") (A') (A") (A') (A') (A")
                 (A') (A") (A') (A") (A') (A') (A') (A') (A") (A")
                 (A') (A') (A') (A') (A") (A') (A') (A') (A") (A')
                 (A') (A") (A') (A") (A') (A') (A") (A') (A") (A')
                 (A") (A") (A') (A') (A') (A') (A') (A') (A") (A")
                 (A') (A') (A') (A") (A') (A') (A') (A") (A') (A")
                 (A') (A') (A") (A") (A') (A') (A") (A') (A") (A')
                 (A') (A') (A") (A') (A') (A') (A") (A') (A") (A')
                 (A') (A") (A") (A") (A') (A') (A") (A") (A') (A')
                 (A') (A") (A') (A') (A") (A') (A') (A') (A") (A')
                 (A") (A') (A') (A") (A') (A') (A") (A') (A') (A')
                 (A") (A') (A") (A') (A') (A") (A') (A') (A") (A')
                 (A") (A') (A') (A") (A') (A") (A') (A") (A') (A")
                 (A') (A") (A') (A') (A") (A') (A') (A") (A') (A")
                 (A') (A') (A") (A") (A') (A') (A") (A') (A') (A")
                 (A') (A") (A") (A') (A") (A') (A') (A") (A") (A')
                 (A') (A') (A") (A') (A") (A') (A") (A') (A') (A")
                 (A') (A") (A') (A") (A") (A') (A') (A") (A') (A")
                 (A') (A') (A') (A') (A") (A') (A") (A') (A') (A')
                 (A') (A') (A') (A') (A') (A') (A') (A') (A')
 The electronic state of the initial guess is 2-A".
 Initial guess <Sx>= 0.0000 <Sy>= 0.0000 <Sz>= 0.5000 <S**2>= 0.7500 S= 0.5000
 Leave Link  401 at Sun Apr 18 11:12:29 2021, MaxMem=   104857600 cpu:              58.1 elap:               1.8
 (Enter /s/ls4/users/knvvv/bin/g16sse/l502.exe)
 Integral symmetry usage will be decided dynamically.
 UHF open shell SCF:
 Using DIIS extrapolation, IDIIS=  1040.
 NGot=   104857600 LenX=   104679784 LenY=   104598687
 Requested convergence on RMS density matrix=1.00D-08 within 128 cycles.
 Requested convergence on MAX density matrix=1.00D-06.
 Requested convergence on             energy=1.00D-06.
 No special actions if energy rises.
 Fock matrices will be formed incrementally for  20 cycles.

 Cycle   1  Pass 1  IDiag  1:
 FoFJK:  IHMeth= 1 ICntrl=       0 DoSepK=F KAlg= 0 I1Cent=           0 FoldK=F
 IRaf= 980000000 NMat=       1 IRICut=       1 DoRegI=T DoRafI=F ISym2E= 1 IDoP0=0 IntGTp=1.
 FoFCou: FMM=F IPFlag=           0 FMFlag=      100000 FMFlg1=           0
         NFxFlg=           0 DoJE=F BraDBF=F KetDBF=F FulRan=T
         wScrn=  0.000000 ICntrl=         0 IOpCl=  1 I1Cent=           0 NGrid=           0
         NMat0=    1 NMatS0=      1 NMatT0=    0 NMatD0=    1 NMtDS0=    0 NMtDT0=    0
 Petite list used in FoFCou.
 CoulSu:  requested number of processors reduced to:  20 ShMem   1 Linda.
 E= -225.956832484923    
 DIIS: error= 3.63D-02 at cycle   1 NSaved=   1.
 NSaved= 1 IEnMin= 1 EnMin= -225.956832484923     IErMin= 1 ErrMin= 3.63D-02
 ErrMax= 3.63D-02  0.00D+00 EMaxC= 1.00D-01 BMatC= 1.01D+00 BMatP= 1.01D+00
 IDIUse=3 WtCom= 6.37D-01 WtEn= 3.63D-01
 Coeff-Com:  0.100D+01
 Coeff-En:   0.100D+01
 Coeff:      0.100D+01
 Gap=     0.378 Goal=   None    Shift=    0.000
 Gap=     0.190 Goal=   None    Shift=    0.000
 GapD=    0.190 DampG=1.000 DampE=0.500 DampFc=0.5000 IDamp=-1.
 Damping current iteration by 5.00D-01
 RMSDP=1.72D-03 MaxDP=7.41D-02              OVMax= 2.86D-01

 Cycle   2  Pass 1  IDiag  1:
 RMSU=  8.59D-04    CP:  9.96D-01
 CoulSu:  requested number of processors reduced to:  20 ShMem   1 Linda.
 E= -225.969623477880     Delta-E=       -0.012790992957 Rises=F Damp=T
 DIIS: error= 1.75D-02 at cycle   2 NSaved=   2.
 NSaved= 2 IEnMin= 2 EnMin= -225.969623477880     IErMin= 2 ErrMin= 1.75D-02
 ErrMax= 1.75D-02  0.00D+00 EMaxC= 1.00D-01 BMatC= 2.55D-01 BMatP= 1.01D+00
 IDIUse=3 WtCom= 8.25D-01 WtEn= 1.75D-01
 Coeff-Com:  0.199D+00 0.801D+00
 Coeff-En:   0.451D+00 0.549D+00
 Coeff:      0.243D+00 0.757D+00
 Gap=     0.376 Goal=   None    Shift=    0.000
 Gap=     0.329 Goal=   None    Shift=    0.000
 RMSDP=6.07D-04 MaxDP=1.92D-02 DE=-1.28D-02 OVMax= 1.95D-01

 Cycle   3  Pass 1  IDiag  1:
 RMSU=  5.41D-04    CP:  1.01D+00  6.87D-01
 CoulSu:  requested number of processors reduced to:  20 ShMem   1 Linda.
 E= -226.062581732095     Delta-E=       -0.092958254215 Rises=F Damp=F
 DIIS: error= 6.38D-03 at cycle   3 NSaved=   3.
 NSaved= 3 IEnMin= 3 EnMin= -226.062581732095     IErMin= 3 ErrMin= 6.38D-03
 ErrMax= 6.38D-03  0.00D+00 EMaxC= 1.00D-01 BMatC= 4.41D-02 BMatP= 2.55D-01
 IDIUse=3 WtCom= 9.36D-01 WtEn= 6.38D-02
 Coeff-Com: -0.753D-01 0.254D+00 0.822D+00
 Coeff-En:   0.000D+00 0.000D+00 0.100D+01
 Coeff:     -0.705D-01 0.238D+00 0.833D+00
 Gap=     0.358 Goal=   None    Shift=    0.000
 Gap=     0.295 Goal=   None    Shift=    0.000
 RMSDP=3.46D-04 MaxDP=1.20D-02 DE=-9.30D-02 OVMax= 8.47D-02

 Cycle   4  Pass 1  IDiag  1:
 RMSU=  2.72D-04    CP:  1.00D+00  8.96D-01  7.97D-01
 CoulSu:  requested number of processors reduced to:  20 ShMem   1 Linda.
 E= -226.067302025766     Delta-E=       -0.004720293671 Rises=F Damp=F
 DIIS: error= 8.38D-03 at cycle   4 NSaved=   4.
 NSaved= 4 IEnMin= 4 EnMin= -226.067302025766     IErMin= 3 ErrMin= 6.38D-03
 ErrMax= 8.38D-03  0.00D+00 EMaxC= 1.00D-01 BMatC= 2.77D-02 BMatP= 4.41D-02
 IDIUse=3 WtCom= 9.16D-01 WtEn= 8.38D-02
 Coeff-Com: -0.530D-01 0.116D+00 0.532D+00 0.405D+00
 Coeff-En:   0.000D+00 0.000D+00 0.327D+00 0.673D+00
 Coeff:     -0.485D-01 0.106D+00 0.515D+00 0.427D+00
 Gap=     0.345 Goal=   None    Shift=    0.000
 Gap=     0.301 Goal=   None    Shift=    0.000
 RMSDP=1.57D-04 MaxDP=6.56D-03 DE=-4.72D-03 OVMax= 3.74D-02

 Cycle   5  Pass 1  IDiag  1:
 RMSU=  1.01D-04    CP:  1.00D+00  8.66D-01  9.14D-01  6.36D-01
 CoulSu:  requested number of processors reduced to:  20 ShMem   1 Linda.
 E= -226.072231297593     Delta-E=       -0.004929271827 Rises=F Damp=F
 DIIS: error= 1.31D-03 at cycle   5 NSaved=   5.
 NSaved= 5 IEnMin= 5 EnMin= -226.072231297593     IErMin= 5 ErrMin= 1.31D-03
 ErrMax= 1.31D-03  0.00D+00 EMaxC= 1.00D-01 BMatC= 1.56D-03 BMatP= 2.77D-02
 IDIUse=3 WtCom= 9.87D-01 WtEn= 1.31D-02
 Coeff-Com: -0.274D-02-0.336D-02 0.968D-01 0.190D+00 0.719D+00
 Coeff-En:   0.000D+00 0.000D+00 0.000D+00 0.000D+00 0.100D+01
 Coeff:     -0.270D-02-0.332D-02 0.955D-01 0.188D+00 0.723D+00
 Gap=     0.344 Goal=   None    Shift=    0.000
 Gap=     0.304 Goal=   None    Shift=    0.000
 RMSDP=5.60D-05 MaxDP=1.77D-03 DE=-4.93D-03 OVMax= 1.40D-02

 Cycle   6  Pass 1  IDiag  1:
 RMSU=  4.38D-05    CP:  1.00D+00  8.71D-01  9.22D-01  7.55D-01  1.11D+00
 CoulSu:  requested number of processors reduced to:  20 ShMem   1 Linda.
 E= -226.072725713256     Delta-E=       -0.000494415663 Rises=F Damp=F
 DIIS: error= 1.20D-03 at cycle   6 NSaved=   6.
 NSaved= 6 IEnMin= 6 EnMin= -226.072725713256     IErMin= 6 ErrMin= 1.20D-03
 ErrMax= 1.20D-03  0.00D+00 EMaxC= 1.00D-01 BMatC= 1.98D-04 BMatP= 1.56D-03
 IDIUse=3 WtCom= 9.88D-01 WtEn= 1.20D-02
 Coeff-Com:  0.149D-01-0.305D-01-0.977D-01-0.882D-01-0.108D+00 0.131D+01
 Coeff-En:   0.000D+00 0.000D+00 0.000D+00 0.000D+00 0.000D+00 0.100D+01
 Coeff:      0.148D-01-0.301D-01-0.965D-01-0.872D-01-0.107D+00 0.131D+01
 Gap=     0.346 Goal=   None    Shift=    0.000
 Gap=     0.307 Goal=   None    Shift=    0.000
 RMSDP=5.91D-05 MaxDP=2.03D-03 DE=-4.94D-04 OVMax= 1.87D-02

 Cycle   7  Pass 1  IDiag  1:
 RMSU=  2.30D-05    CP:  1.00D+00  8.75D-01  9.47D-01  8.48D-01  1.47D+00
                    CP:  1.67D+00
 CoulSu:  requested number of processors reduced to:  20 ShMem   1 Linda.
 E= -226.072988960907     Delta-E=       -0.000263247651 Rises=F Damp=F
 DIIS: error= 4.01D-04 at cycle   7 NSaved=   7.
 NSaved= 7 IEnMin= 7 EnMin= -226.072988960907     IErMin= 7 ErrMin= 4.01D-04
 ErrMax= 4.01D-04  0.00D+00 EMaxC= 1.00D-01 BMatC= 7.67D-05 BMatP= 1.98D-04
 IDIUse=3 WtCom= 9.96D-01 WtEn= 4.01D-03
 Coeff-Com:  0.434D-02-0.594D-02-0.210D-01-0.360D-01-0.204D+00 0.271D+00
 Coeff-Com:  0.992D+00
 Coeff-En:   0.000D+00 0.000D+00 0.000D+00 0.000D+00 0.000D+00 0.000D+00
 Coeff-En:   0.100D+01
 Coeff:      0.432D-02-0.592D-02-0.209D-01-0.358D-01-0.203D+00 0.270D+00
 Coeff:      0.992D+00
 Gap=     0.346 Goal=   None    Shift=    0.000
 Gap=     0.308 Goal=   None    Shift=    0.000
 RMSDP=3.05D-05 MaxDP=8.47D-04 DE=-2.63D-04 OVMax= 8.37D-03

 Cycle   8  Pass 1  IDiag  1:
 RMSU=  1.05D-05    CP:  1.00D+00  8.75D-01  9.55D-01  8.78D-01  1.58D+00
                    CP:  2.12D+00  1.63D+00
 CoulSu:  requested number of processors reduced to:  20 ShMem   1 Linda.
 E= -226.073070351624     Delta-E=       -0.000081390717 Rises=F Damp=F
 DIIS: error= 1.96D-04 at cycle   8 NSaved=   8.
 NSaved= 8 IEnMin= 8 EnMin= -226.073070351624     IErMin= 8 ErrMin= 1.96D-04
 ErrMax= 1.96D-04  0.00D+00 EMaxC= 1.00D-01 BMatC= 2.40D-05 BMatP= 7.67D-05
 IDIUse=3 WtCom= 9.98D-01 WtEn= 1.96D-03
 Coeff-Com: -0.472D-02 0.926D-02 0.362D-01 0.485D-01 0.583D-01-0.483D+00
 Coeff-Com: -0.256D+00 0.159D+01
 Coeff-En:   0.000D+00 0.000D+00 0.000D+00 0.000D+00 0.000D+00 0.000D+00
 Coeff-En:   0.000D+00 0.100D+01
 Coeff:     -0.471D-02 0.925D-02 0.362D-01 0.484D-01 0.582D-01-0.482D+00
 Coeff:     -0.256D+00 0.159D+01
 Gap=     0.346 Goal=   None    Shift=    0.000
 Gap=     0.308 Goal=   None    Shift=    0.000
 RMSDP=3.45D-05 MaxDP=9.57D-04 DE=-8.14D-05 OVMax= 9.75D-03

 Cycle   9  Pass 1  IDiag  1:
 RMSU=  7.18D-06    CP:  1.00D+00  8.75D-01  9.61D-01  8.99D-01  1.67D+00
                    CP:  2.50D+00  2.63D+00  2.40D+00
 CoulSu:  requested number of processors reduced to:  20 ShMem   1 Linda.
 E= -226.073127991896     Delta-E=       -0.000057640272 Rises=F Damp=F
 DIIS: error= 1.13D-04 at cycle   9 NSaved=   9.
 NSaved= 9 IEnMin= 9 EnMin= -226.073127991896     IErMin= 9 ErrMin= 1.13D-04
 ErrMax= 1.13D-04  0.00D+00 EMaxC= 1.00D-01 BMatC= 8.81D-06 BMatP= 2.40D-05
 IDIUse=3 WtCom= 9.99D-01 WtEn= 1.13D-03
 Coeff-Com:  0.580D-03-0.143D-02-0.132D-01-0.103D-01 0.272D-01 0.160D+00
 Coeff-Com: -0.130D+00-0.770D+00 0.174D+01
 Coeff-En:   0.000D+00 0.000D+00 0.000D+00 0.000D+00 0.000D+00 0.000D+00
 Coeff-En:   0.000D+00 0.000D+00 0.100D+01
 Coeff:      0.580D-03-0.143D-02-0.131D-01-0.103D-01 0.272D-01 0.160D+00
 Coeff:     -0.129D+00-0.769D+00 0.174D+01
 Gap=     0.346 Goal=   None    Shift=    0.000
 Gap=     0.308 Goal=   None    Shift=    0.000
 RMSDP=2.60D-05 MaxDP=8.00D-04 DE=-5.76D-05 OVMax= 7.14D-03

 Cycle  10  Pass 1  IDiag  1:
 RMSU=  1.15D-05    CP:  1.00D+00  8.76D-01  9.62D-01  9.04D-01  1.70D+00
                    CP:  2.69D+00  3.00D+00  3.00D+00  2.48D+00
 CoulSu:  requested number of processors reduced to:  20 ShMem   1 Linda.
 E= -226.073156722598     Delta-E=       -0.000028730702 Rises=F Damp=F
 DIIS: error= 6.99D-05 at cycle  10 NSaved=  10.
 NSaved=10 IEnMin=10 EnMin= -226.073156722598     IErMin=10 ErrMin= 6.99D-05
 ErrMax= 6.99D-05  0.00D+00 EMaxC= 1.00D-01 BMatC= 3.80D-06 BMatP= 8.81D-06
 IDIUse=1 WtCom= 1.00D+00 WtEn= 0.00D+00
 Coeff-Com:  0.194D-02-0.354D-02-0.130D-01-0.216D-01-0.325D-01 0.170D+00
 Coeff-Com:  0.156D+00-0.471D+00-0.745D+00 0.196D+01
 Coeff:      0.194D-02-0.354D-02-0.130D-01-0.216D-01-0.325D-01 0.170D+00
 Coeff:      0.156D+00-0.471D+00-0.745D+00 0.196D+01
 Gap=     0.347 Goal=   None    Shift=    0.000
 Gap=     0.308 Goal=   None    Shift=    0.000
 RMSDP=2.76D-05 MaxDP=8.76D-04 DE=-2.87D-05 OVMax= 7.69D-03

 Cycle  11  Pass 1  IDiag  1:
 RMSU=  9.63D-06    CP:  1.00D+00  8.77D-01  9.63D-01  9.07D-01  1.73D+00
                    CP:  2.87D+00  3.00D+00  3.00D+00  3.00D+00  2.96D+00
 CoulSu:  requested number of processors reduced to:  20 ShMem   1 Linda.
 E= -226.073174008386     Delta-E=       -0.000017285788 Rises=F Damp=F
 DIIS: error= 4.82D-05 at cycle  11 NSaved=  11.
 NSaved=11 IEnMin=11 EnMin= -226.073174008386     IErMin=11 ErrMin= 4.82D-05
 ErrMax= 4.82D-05  0.00D+00 EMaxC= 1.00D-01 BMatC= 9.77D-07 BMatP= 3.80D-06
 IDIUse=1 WtCom= 1.00D+00 WtEn= 0.00D+00
 Coeff-Com: -0.867D-03 0.178D-02 0.107D-01 0.997D-02 0.685D-02-0.125D+00
 Coeff-Com: -0.335D-01 0.551D+00-0.710D+00-0.340D+00 0.163D+01
 Coeff:     -0.867D-03 0.178D-02 0.107D-01 0.997D-02 0.685D-02-0.125D+00
 Coeff:     -0.335D-01 0.551D+00-0.710D+00-0.340D+00 0.163D+01
 Gap=     0.347 Goal=   None    Shift=    0.000
 Gap=     0.308 Goal=   None    Shift=    0.000
 RMSDP=1.68D-05 MaxDP=5.72D-04 DE=-1.73D-05 OVMax= 4.63D-03

 Cycle  12  Pass 1  IDiag  1:
 RMSU=  1.34D-05    CP:  1.00D+00  8.77D-01  9.64D-01  9.06D-01  1.75D+00
                    CP:  2.97D+00  3.00D+00  3.00D+00  3.00D+00  3.00D+00
                    CP:  1.84D+00
 CoulSu:  requested number of processors reduced to:  20 ShMem   1 Linda.
 E= -226.073177705394     Delta-E=       -0.000003697008 Rises=F Damp=F
 DIIS: error= 1.43D-05 at cycle  12 NSaved=  12.
 NSaved=12 IEnMin=12 EnMin= -226.073177705394     IErMin=12 ErrMin= 1.43D-05
 ErrMax= 1.43D-05  0.00D+00 EMaxC= 1.00D-01 BMatC= 5.88D-08 BMatP= 9.77D-07
 IDIUse=1 WtCom= 1.00D+00 WtEn= 0.00D+00
 Coeff-Com: -0.162D-03 0.302D-03 0.111D-03 0.986D-03 0.317D-02-0.114D-01
 Coeff-Com: -0.189D-01 0.210D-01 0.144D+00-0.169D+00-0.200D+00 0.123D+01
 Coeff:     -0.162D-03 0.302D-03 0.111D-03 0.986D-03 0.317D-02-0.114D-01
 Coeff:     -0.189D-01 0.210D-01 0.144D+00-0.169D+00-0.200D+00 0.123D+01
 Gap=     0.347 Goal=   None    Shift=    0.000
 Gap=     0.308 Goal=   None    Shift=    0.000
 RMSDP=2.06D-06 MaxDP=8.43D-05 DE=-3.70D-06 OVMax= 5.71D-04

 Cycle  13  Pass 1  IDiag  1:
 RMSU=  6.20D-07    CP:  1.00D+00  8.77D-01  9.64D-01  9.07D-01  1.75D+00
                    CP:  2.99D+00  3.00D+00  3.00D+00  3.00D+00  3.00D+00
                    CP:  1.93D+00  1.12D+00
 CoulSu:  requested number of processors reduced to:  20 ShMem   1 Linda.
 E= -226.073177793916     Delta-E=       -0.000000088522 Rises=F Damp=F
 DIIS: error= 3.23D-06 at cycle  13 NSaved=  13.
 NSaved=13 IEnMin=13 EnMin= -226.073177793916     IErMin=13 ErrMin= 3.23D-06
 ErrMax= 3.23D-06  0.00D+00 EMaxC= 1.00D-01 BMatC= 4.90D-09 BMatP= 5.88D-08
 IDIUse=1 WtCom= 1.00D+00 WtEn= 0.00D+00
 Coeff-Com:  0.613D-04-0.119D-03-0.415D-03-0.588D-03-0.211D-04 0.755D-02
 Coeff-Com:  0.474D-02-0.359D-01 0.247D-01 0.464D-01-0.937D-01-0.161D+00
 Coeff-Com:  0.121D+01
 Coeff:      0.613D-04-0.119D-03-0.415D-03-0.588D-03-0.211D-04 0.755D-02
 Coeff:      0.474D-02-0.359D-01 0.247D-01 0.464D-01-0.937D-01-0.161D+00
 Coeff:      0.121D+01
 Gap=     0.347 Goal=   None    Shift=    0.000
 Gap=     0.308 Goal=   None    Shift=    0.000
 RMSDP=3.50D-07 MaxDP=1.36D-05 DE=-8.85D-08 OVMax= 6.14D-05

 Cycle  14  Pass 1  IDiag  1:
 RMSU=  1.20D-07    CP:  1.00D+00  8.77D-01  9.64D-01  9.07D-01  1.75D+00
                    CP:  2.99D+00  3.00D+00  3.00D+00  3.00D+00  3.00D+00
                    CP:  1.94D+00  1.13D+00  1.29D+00
 CoulSu:  requested number of processors reduced to:  20 ShMem   1 Linda.
 E= -226.073177797639     Delta-E=       -0.000000003723 Rises=F Damp=F
 DIIS: error= 7.60D-07 at cycle  14 NSaved=  14.
 NSaved=14 IEnMin=14 EnMin= -226.073177797639     IErMin=14 ErrMin= 7.60D-07
 ErrMax= 7.60D-07  0.00D+00 EMaxC= 1.00D-01 BMatC= 3.78D-10 BMatP= 4.90D-09
 IDIUse=1 WtCom= 1.00D+00 WtEn= 0.00D+00
 Coeff-Com:  0.485D-05-0.989D-05 0.491D-04-0.533D-04-0.173D-03 0.245D-03
 Coeff-Com:  0.133D-02-0.316D-03-0.926D-02 0.954D-02 0.154D-01-0.851D-01
 Coeff-Com: -0.874D-02 0.108D+01
 Coeff:      0.485D-05-0.989D-05 0.491D-04-0.533D-04-0.173D-03 0.245D-03
 Coeff:      0.133D-02-0.316D-03-0.926D-02 0.954D-02 0.154D-01-0.851D-01
 Coeff:     -0.874D-02 0.108D+01
 Gap=     0.347 Goal=   None    Shift=    0.000
 Gap=     0.308 Goal=   None    Shift=    0.000
 RMSDP=6.48D-08 MaxDP=2.80D-06 DE=-3.72D-09 OVMax= 1.07D-05

 Cycle  15  Pass 1  IDiag  1:
 RMSU=  2.99D-08    CP:  1.00D+00  8.77D-01  9.64D-01  9.07D-01  1.75D+00
                    CP:  2.99D+00  3.00D+00  3.00D+00  3.00D+00  3.00D+00
                    CP:  1.94D+00  1.13D+00  1.35D+00  1.29D+00
 CoulSu:  requested number of processors reduced to:  20 ShMem   1 Linda.
 E= -226.073177797881     Delta-E=       -0.000000000243 Rises=F Damp=F
 DIIS: error= 2.57D-07 at cycle  15 NSaved=  15.
 NSaved=15 IEnMin=15 EnMin= -226.073177797881     IErMin=15 ErrMin= 2.57D-07
 ErrMax= 2.57D-07  0.00D+00 EMaxC= 1.00D-01 BMatC= 4.90D-11 BMatP= 3.78D-10
 IDIUse=1 WtCom= 1.00D+00 WtEn= 0.00D+00
 Coeff-Com: -0.442D-05 0.850D-05-0.545D-05 0.298D-04-0.692D-04-0.283D-03
 Coeff-Com: -0.315D-03 0.168D-02 0.179D-03-0.438D-02 0.484D-02 0.251D-01
 Coeff-Com: -0.108D+00-0.111D+00 0.119D+01
 Coeff:     -0.442D-05 0.850D-05-0.545D-05 0.298D-04-0.692D-04-0.283D-03
 Coeff:     -0.315D-03 0.168D-02 0.179D-03-0.438D-02 0.484D-02 0.251D-01
 Coeff:     -0.108D+00-0.111D+00 0.119D+01
 Gap=     0.347 Goal=   None    Shift=    0.000
 Gap=     0.308 Goal=   None    Shift=    0.000
 RMSDP=2.78D-08 MaxDP=1.13D-06 DE=-2.43D-10 OVMax= 7.12D-06

 Cycle  16  Pass 1  IDiag  1:
 RMSU=  1.10D-08    CP:  1.00D+00  8.77D-01  9.64D-01  9.07D-01  1.75D+00
                    CP:  2.99D+00  3.00D+00  3.00D+00  3.00D+00  3.00D+00
                    CP:  1.94D+00  1.13D+00  1.36D+00  1.40D+00  1.39D+00
 CoulSu:  requested number of processors reduced to:  20 ShMem   1 Linda.
 E= -226.073177797919     Delta-E=       -0.000000000038 Rises=F Damp=F
 DIIS: error= 6.04D-08 at cycle  16 NSaved=  16.
 NSaved=16 IEnMin=16 EnMin= -226.073177797919     IErMin=16 ErrMin= 6.04D-08
 ErrMax= 6.04D-08  0.00D+00 EMaxC= 1.00D-01 BMatC= 3.49D-12 BMatP= 4.90D-11
 IDIUse=1 WtCom= 1.00D+00 WtEn= 0.00D+00
 Coeff-Com:  0.900D-06-0.141D-05-0.247D-05 0.269D-06 0.111D-04 0.162D-04
 Coeff-Com: -0.463D-04-0.393D-04 0.307D-03-0.707D-04-0.142D-02 0.269D-02
 Coeff-Com:  0.135D-01-0.645D-01-0.235D+00 0.128D+01
 Coeff:      0.900D-06-0.141D-05-0.247D-05 0.269D-06 0.111D-04 0.162D-04
 Coeff:     -0.463D-04-0.393D-04 0.307D-03-0.707D-04-0.142D-02 0.269D-02
 Coeff:      0.135D-01-0.645D-01-0.235D+00 0.128D+01
 Gap=     0.347 Goal=   None    Shift=    0.000
 Gap=     0.308 Goal=   None    Shift=    0.000
 RMSDP=8.35D-09 MaxDP=3.42D-07 DE=-3.76D-11 OVMax= 1.81D-06

 SCF Done:  E(UM062X) =  -226.073177798     A.U. after   16 cycles
            NFock= 16  Conv=0.83D-08     -V/T= 2.0035
 <Sx>= 0.0000 <Sy>= 0.0000 <Sz>= 0.5000 <S**2>= 0.7755 S= 0.5127
 <L.S>= 0.000000000000E+00
 KE= 2.252821404606D+02 PE=-6.775877222558D+02 EE= 1.547186885065D+02
 Annihilation of the first spin contaminant:
 S**2 before annihilation     0.7755,   after     0.7502
 Leave Link  502 at Sun Apr 18 11:13:17 2021, MaxMem=   104857600 cpu:            1657.1 elap:              48.0
 (Enter /s/ls4/users/knvvv/bin/g16sse/l601.exe)
 Copying SCF densities to generalized density rwf, IOpCl= 1 IROHF=0.

 **********************************************************************

            Population analysis using the SCF density.

 **********************************************************************

 Orbital symmetries:
 Alpha Orbitals:
       Occupied  (A') (A') (A') (A') (A') (A') (A") (A') (A') (A')
                 (A") (A') (A")
       Virtual   (A') (A') (A') (A') (A") (A') (A') (A") (A") (A')
                 (A') (A') (A') (A") (A') (A') (A') (A') (A') (A")
                 (A') (A") (A') (A') (A") (A") (A') (A') (A") (A')
                 (A") (A') (A') (A") (A') (A') (A') (A") (A") (A')
                 (A') (A') (A') (A") (A') (A') (A') (A") (A') (A')
                 (A") (A') (A') (A') (A") (A") (A') (A") (A') (A")
                 (A') (A") (A') (A') (A') (A') (A') (A") (A") (A')
                 (A') (A') (A") (A') (A') (A') (A") (A') (A") (A')
                 (A') (A") (A") (A') (A') (A") (A') (A") (A') (A')
                 (A') (A") (A') (A') (A') (A") (A') (A') (A") (A')
                 (A") (A") (A') (A") (A') (A") (A") (A') (A') (A')
                 (A") (A') (A') (A") (A') (A') (A') (A") (A') (A')
                 (A") (A') (A") (A') (A') (A') (A") (A') (A") (A')
                 (A') (A") (A') (A') (A") (A') (A') (A") (A") (A')
                 (A') (A') (A") (A') (A") (A') (A') (A") (A") (A')
                 (A") (A') (A') (A") (A') (A') (A") (A') (A") (A')
                 (A') (A") (A") (A') (A') (A") (A') (A') (A") (A')
                 (A") (A") (A') (A") (A') (A') (A") (A') (A") (A')
                 (A') (A") (A') (A") (A') (A') (A") (A") (A') (A')
                 (A") (A') (A") (A") (A') (A') (A') (A") (A") (A')
                 (A') (A') (A') (A") (A") (A') (A') (A') (A') (A')
                 (A') (A') (A') (A') (A') (A') (A') (A')
 Beta  Orbitals:
       Occupied  (A') (A') (A') (A') (A') (A') (A') (A') (A") (A')
                 (A") (A')
       Virtual   (A") (A') (A') (A') (A') (A") (A') (A') (A") (A")
                 (A') (A') (A') (A") (A') (A') (A') (A') (A') (A')
                 (A") (A') (A') (A") (A') (A") (A") (A') (A') (A")
                 (A') (A") (A') (A") (A') (A') (A') (A') (A") (A")
                 (A') (A') (A') (A') (A") (A') (A') (A') (A") (A')
                 (A') (A") (A') (A') (A') (A") (A") (A') (A") (A')
                 (A') (A") (A") (A') (A') (A') (A') (A') (A") (A")
                 (A') (A') (A') (A") (A') (A') (A') (A") (A') (A")
                 (A') (A') (A") (A") (A') (A') (A") (A') (A") (A')
                 (A') (A') (A") (A') (A') (A') (A") (A') (A') (A")
                 (A') (A") (A") (A') (A") (A') (A") (A") (A') (A')
                 (A') (A") (A') (A') (A") (A') (A') (A') (A") (A')
                 (A') (A") (A') (A") (A') (A') (A') (A") (A') (A")
                 (A') (A') (A") (A') (A') (A") (A') (A') (A") (A")
                 (A') (A') (A') (A") (A') (A") (A') (A') (A") (A")
                 (A') (A") (A') (A') (A') (A") (A') (A") (A') (A")
                 (A') (A') (A") (A") (A') (A') (A") (A') (A') (A")
                 (A') (A") (A") (A") (A') (A') (A') (A") (A') (A")
                 (A') (A') (A") (A') (A") (A') (A') (A") (A') (A")
                 (A') (A") (A') (A") (A") (A') (A') (A') (A") (A")
                 (A') (A') (A') (A') (A") (A") (A') (A') (A') (A')
                 (A') (A') (A') (A') (A') (A') (A') (A') (A')
 The electronic state is 2-A".
 Alpha  occ. eigenvalues --  -19.85207 -19.75706 -19.70402  -1.44007  -1.15991
 Alpha  occ. eigenvalues --   -0.94738  -0.67526  -0.67000  -0.64691  -0.53735
 Alpha  occ. eigenvalues --   -0.45707  -0.40591  -0.38468
 Alpha virt. eigenvalues --   -0.03788   0.00877   0.03941   0.04783   0.05274
 Alpha virt. eigenvalues --    0.07798   0.08656   0.08919   0.09841   0.11801
 Alpha virt. eigenvalues --    0.13006   0.15763   0.19435   0.19653   0.21685
 Alpha virt. eigenvalues --    0.24546   0.27080   0.29931   0.34342   0.34895
 Alpha virt. eigenvalues --    0.37667   0.38299   0.38417   0.39789   0.40511
 Alpha virt. eigenvalues --    0.42337   0.43272   0.44184   0.45827   0.47410
 Alpha virt. eigenvalues --    0.47952   0.52721   0.52756   0.52918   0.58821
 Alpha virt. eigenvalues --    0.59398   0.60064   0.61240   0.63973   0.65870
 Alpha virt. eigenvalues --    0.67562   0.73302   0.80118   0.86186   0.91420
 Alpha virt. eigenvalues --    0.98298   1.05190   1.08535   1.10775   1.18508
 Alpha virt. eigenvalues --    1.20680   1.23116   1.27246   1.31024   1.31035
 Alpha virt. eigenvalues --    1.40033   1.42597   1.44225   1.47334   1.48752
 Alpha virt. eigenvalues --    1.49935   1.51379   1.52548   1.56932   1.61482
 Alpha virt. eigenvalues --    1.70477   1.71390   1.77056   1.88899   1.94154
 Alpha virt. eigenvalues --    2.00386   2.08120   2.10789   2.19868   2.24480
 Alpha virt. eigenvalues --    2.30778   2.45462   2.60547   2.62196   2.65228
 Alpha virt. eigenvalues --    2.78425   2.86929   2.90298   2.97442   3.00914
 Alpha virt. eigenvalues --    3.13241   3.15801   3.18068   3.24098   3.26141
 Alpha virt. eigenvalues --    3.36000   3.45127   3.48182   3.58658   3.59429
 Alpha virt. eigenvalues --    3.80632   3.80796   3.87672   3.88426   3.93002
 Alpha virt. eigenvalues --    3.96144   3.98113   4.05103   4.05790   4.11593
 Alpha virt. eigenvalues --    4.12249   4.14712   4.18110   4.20167   4.24968
 Alpha virt. eigenvalues --    4.35884   4.40508   4.45047   4.46460   4.55969
 Alpha virt. eigenvalues --    4.61200   4.62314   4.69259   4.78384   4.98660
 Alpha virt. eigenvalues --    4.98706   5.04949   5.24291   5.26876   5.33770
 Alpha virt. eigenvalues --    5.46711   5.47773   5.68018   5.71977   5.81687
 Alpha virt. eigenvalues --    5.97991   6.41292   6.53352   7.10016   7.21190
 Alpha virt. eigenvalues --    7.28582   7.38072   7.60132   7.64689   7.72730
 Alpha virt. eigenvalues --    7.75804   7.86966   8.06400   8.14148   8.22834
 Alpha virt. eigenvalues --    8.30197   8.41008   8.42738   8.46125   8.47639
 Alpha virt. eigenvalues --    8.48899   8.56877   8.63044   8.72553   8.72976
 Alpha virt. eigenvalues --    8.79461   8.89695   8.97014   9.13414   9.22035
 Alpha virt. eigenvalues --    9.34433   9.42192   9.98304   9.99666  10.13966
 Alpha virt. eigenvalues --   10.14963  10.32958  10.46133  10.53174  10.61414
 Alpha virt. eigenvalues --   10.67960  10.69476  10.74324  10.75776  10.81132
 Alpha virt. eigenvalues --   10.85880  10.87374  10.93806  11.01291  11.13208
 Alpha virt. eigenvalues --   11.20026  11.24390  11.25627  11.30039  11.40355
 Alpha virt. eigenvalues --   11.44198  11.48901  11.50260  11.53651  11.65665
 Alpha virt. eigenvalues --   11.70955  11.73128  11.81711  11.83996  11.91772
 Alpha virt. eigenvalues --   11.94792  11.97671  11.99888  12.08790  12.13042
 Alpha virt. eigenvalues --   12.22107  12.56497  12.64932  13.54359  13.57682
 Alpha virt. eigenvalues --   13.60710  13.65587  13.67684  13.87738  14.32309
 Alpha virt. eigenvalues --   15.37264  16.33578  47.50755  47.97585  48.18554
 Alpha virt. eigenvalues --  250.49036 251.02049 251.23319
  Beta  occ. eigenvalues --  -19.83994 -19.74141 -19.70558  -1.40305  -1.15773
  Beta  occ. eigenvalues --   -0.89802  -0.65322  -0.62049  -0.57298  -0.53227
  Beta  occ. eigenvalues --   -0.42616  -0.38469
  Beta virt. eigenvalues --   -0.07685  -0.02867   0.00867   0.03986   0.04829
  Beta virt. eigenvalues --    0.05565   0.07834   0.08664   0.09248   0.10426
  Beta virt. eigenvalues --    0.11902   0.13030   0.15758   0.19762   0.19854
  Beta virt. eigenvalues --    0.21825   0.24913   0.27047   0.31326   0.34431
  Beta virt. eigenvalues --    0.34663   0.37917   0.38535   0.38867   0.40018
  Beta virt. eigenvalues --    0.40808   0.42148   0.43225   0.44112   0.45958
  Beta virt. eigenvalues --    0.47667   0.47816   0.52656   0.52728   0.52952
  Beta virt. eigenvalues --    0.58736   0.59668   0.60124   0.61442   0.64088
  Beta virt. eigenvalues --    0.66089   0.67685   0.72944   0.79884   0.86160
  Beta virt. eigenvalues --    0.91824   0.98346   1.05287   1.09381   1.10955
  Beta virt. eigenvalues --    1.18714   1.22059   1.23807   1.27945   1.31435
  Beta virt. eigenvalues --    1.32668   1.40402   1.43121   1.47078   1.48032
  Beta virt. eigenvalues --    1.50357   1.51423   1.51768   1.53264   1.57176
  Beta virt. eigenvalues --    1.61615   1.70601   1.71628   1.77749   1.89972
  Beta virt. eigenvalues --    1.94420   2.00442   2.08083   2.10939   2.19899
  Beta virt. eigenvalues --    2.24506   2.30845   2.45459   2.60531   2.62140
  Beta virt. eigenvalues --    2.65279   2.78621   2.86876   2.90546   2.97244
  Beta virt. eigenvalues --    3.01303   3.15527   3.16409   3.18812   3.24635
  Beta virt. eigenvalues --    3.26504   3.35864   3.45243   3.47763   3.58630
  Beta virt. eigenvalues --    3.60357   3.81272   3.81648   3.88725   3.90406
  Beta virt. eigenvalues --    3.94198   3.97802   3.98488   4.05722   4.07172
  Beta virt. eigenvalues --    4.11744   4.12524   4.15069   4.18637   4.20935
  Beta virt. eigenvalues --    4.24834   4.35919   4.40086   4.45271   4.46386
  Beta virt. eigenvalues --    4.56167   4.61040   4.63203   4.70512   4.78110
  Beta virt. eigenvalues --    4.98833   5.03497   5.05738   5.24387   5.27329
  Beta virt. eigenvalues --    5.33970   5.46563   5.51513   5.68036   5.71981
  Beta virt. eigenvalues --    5.81370   5.98004   6.41116   6.53173   7.09765
  Beta virt. eigenvalues --    7.21041   7.28404   7.37750   7.59971   7.64662
  Beta virt. eigenvalues --    7.73366   7.75719   7.86615   8.06916   8.14347
  Beta virt. eigenvalues --    8.23281   8.30363   8.41646   8.43428   8.45847
  Beta virt. eigenvalues --    8.47553   8.49136   8.56848   8.62176   8.76493
  Beta virt. eigenvalues --    8.76611   8.80322   8.89292   8.97124   9.13763
  Beta virt. eigenvalues --    9.21382   9.34525   9.42372   9.97152   9.98613
  Beta virt. eigenvalues --   10.13624  10.14766  10.32666  10.46052  10.54925
  Beta virt. eigenvalues --   10.61210  10.68516  10.74043  10.80788  10.81653
  Beta virt. eigenvalues --   10.83679  10.88802  10.90129  10.93429  11.01627
  Beta virt. eigenvalues --   11.13806  11.20297  11.26498  11.27710  11.34127
  Beta virt. eigenvalues --   11.40328  11.44141  11.48771  11.54431  11.55959
  Beta virt. eigenvalues --   11.66329  11.70516  11.74499  11.88244  11.90623
  Beta virt. eigenvalues --   11.95428  11.96583  12.03871  12.06026  12.07005
  Beta virt. eigenvalues --   12.13124  12.21594  12.55950  12.64143  13.57027
  Beta virt. eigenvalues --   13.59023  13.61995  13.64396  13.72232  13.89631
  Beta virt. eigenvalues --   14.36743  15.36706  16.32820  47.52738  48.00715
  Beta virt. eigenvalues --   48.16250 250.46853 250.99916 251.22356
          Condensed to atoms (all electrons):
               1          2          3          4
     1  O    8.121678   0.033511  -0.033030  -0.001763
     2  O    0.033511   7.824696  -0.022139   0.009058
     3  O   -0.033030  -0.022139   8.274372   0.214078
     4  H   -0.001763   0.009058   0.214078   0.379824
          Atomic-Atomic Spin Densities.
               1          2          3          4
     1  O    0.832638  -0.160969   0.014616  -0.000815
     2  O   -0.160969   0.578216   0.001712  -0.001359
     3  O    0.014616   0.001712  -0.127378   0.000301
     4  H   -0.000815  -0.001359   0.000301   0.009553
 Mulliken charges and spin densities:
               1          2
     1  O   -0.120395   0.685470
     2  O    0.154874   0.417600
     3  O   -0.433281  -0.110749
     4  H    0.398802   0.007680
 Sum of Mulliken charges =  -0.00000   1.00000
 Mulliken charges and spin densities with hydrogens summed into heavy atoms:
               1          2
     1  O   -0.120395   0.685470
     2  O    0.154874   0.417600
     3  O   -0.034479  -0.103070
 Electronic spatial extent (au):  <R**2>=            136.4209
 Charge=             -0.0000 electrons
 Dipole moment (field-independent basis, Debye):
    X=             -1.7635    Y=              1.0265    Z=              0.0000  Tot=              2.0405
 Quadrupole moment (field-independent basis, Debye-Ang):
   XX=            -12.9414   YY=            -17.5341   ZZ=            -16.6160
   XY=             -0.7025   XZ=             -0.0000   YZ=              0.0000
 Traceless Quadrupole moment (field-independent basis, Debye-Ang):
   XX=              2.7558   YY=             -1.8369   ZZ=             -0.9188
   XY=             -0.7025   XZ=             -0.0000   YZ=              0.0000
 Octapole moment (field-independent basis, Debye-Ang**2):
  XXX=            -10.2254  YYY=              1.8004  ZZZ=             -0.0000  XYY=              0.5774
  XXY=             -0.0633  XXZ=              0.0000  XZZ=              0.8771  YZZ=              0.8575
  YYZ=             -0.0000  XYZ=              0.0000
 Hexadecapole moment (field-independent basis, Debye-Ang**3):
 XXXX=            -75.3320 YYYY=            -41.2814 ZZZZ=            -13.0175 XXXY=            -15.0627
 XXXZ=              0.0000 YYYX=            -16.0066 YYYZ=              0.0000 ZZZX=              0.0000
 ZZZY=              0.0000 XXYY=            -23.3152 XXZZ=            -18.6278 YYZZ=             -9.3815
 XXYZ=              0.0000 YYXZ=              0.0000 ZZXY=             -5.6791
 N-N= 7.151371549079D+01 E-N=-6.775877219060D+02  KE= 2.252821404606D+02
                          Isotropic Fermi Contact Couplings
        Atom                 a.u.       MegaHertz       Gauss      10(-4) cm-1
     1  O(17)              0.10390     -62.98650     -22.47515     -21.01003
     2  O(17)              0.00770      -4.66476      -1.66450      -1.55600
     3  O(17)             -0.02730      16.54720       5.90445       5.51955
     4  H(1)               0.00143       6.37669       2.27536       2.12704
 PrsmSu:  requested number of processors reduced to:  21 ShMem   1 Linda.
 --------------------------------------------------------
       Center         ----  Spin Dipole Couplings  ----
                      3XX-RR        3YY-RR        3ZZ-RR
 --------------------------------------------------------
     1   Atom       -1.598251     -1.235331      2.833582
     2   Atom       -1.231202     -0.762348      1.993550
     3   Atom       -0.042406     -0.355368      0.397774
     4   Atom        0.004462     -0.009695      0.005233
 --------------------------------------------------------
                        XY            XZ            YZ
 --------------------------------------------------------
     1   Atom        0.168459     -0.000000      0.000000
     2   Atom        0.198164     -0.000000      0.000000
     3   Atom       -0.346835     -0.000000     -0.000000
     4   Atom        0.019214      0.000000     -0.000000
 --------------------------------------------------------


 ---------------------------------------------------------------------------------
              Anisotropic Spin Dipole Couplings in Principal Axis System
 ---------------------------------------------------------------------------------

       Atom             a.u.   MegaHertz   Gauss  10(-4) cm-1        Axes

              Baa    -1.6644   120.434    42.974    40.173  0.9308 -0.3655  0.0000
     1 O(17)  Bbb    -1.1692    84.602    30.188    28.220  0.3655  0.9308  0.0000
              Bcc     2.8336  -205.036   -73.162   -68.393  0.0000  0.0000  1.0000
 
              Baa    -1.3037    94.337    33.662    31.468  0.9391 -0.3437  0.0000
     2 O(17)  Bbb    -0.6898    49.914    17.811    16.650  0.3437  0.9391 -0.0000
              Bcc     1.9935  -144.252   -51.473   -48.117  0.0000  0.0000  1.0000
 
              Baa    -0.5794    41.924    14.960    13.984  0.5426  0.8400 -0.0000
     3 O(17)  Bbb     0.1816   -13.141    -4.689    -4.384  0.8400 -0.5426 -0.0000
              Bcc     0.3978   -28.783   -10.270    -9.601  0.0000  0.0000  1.0000
 
              Baa    -0.0231   -12.321    -4.397    -4.110 -0.5720  0.8203 -0.0000
     4 H(1)   Bbb     0.0052     2.792     0.996     0.931  0.0000  0.0000  1.0000
              Bcc     0.0179     9.529     3.400     3.179  0.8203  0.5720 -0.0000
 

 ---------------------------------------------------------------------------------

 PrsmSu:  requested number of processors reduced to:  21 ShMem   1 Linda.
 No NMR shielding tensors so no spin-rotation constants.
 Leave Link  601 at Sun Apr 18 11:13:23 2021, MaxMem=   104857600 cpu:             256.7 elap:               5.7
 (Enter /s/ls4/users/knvvv/bin/g16sse/l801.exe)
 DoSCS=F DFT=T ScalE2(SS,OS)=  1.000000  1.000000
 Range of M.O.s used for correlation:     1   231
 NBasis=   231 NAE=    13 NBE=    12 NFC=     0 NFV=     0
 NROrb=    231 NOA=    13 NOB=    12 NVA=   218 NVB=   219

 **** Warning!!: The largest alpha MO coefficient is  0.25519557D+02


 **** Warning!!: The largest beta MO coefficient is  0.26272964D+02

 Leave Link  801 at Sun Apr 18 11:13:23 2021, MaxMem=   104857600 cpu:               6.0 elap:               0.2
 (Enter /s/ls4/users/knvvv/bin/g16sse/l914.exe)
 UHF ground state
 Doing stability rather than CIS.
 Two-electron integrals replicated using symmetry.
 MDV=   104857600 DFT=T DoStab=T Mixed=T DoRPA=F DoScal=F NonHer=F
 Making orbital integer symmetry assigments:
 Orbital symmetries:
 Alpha Orbitals:
       Occupied  (A') (A') (A') (A') (A') (A') (A") (A') (A') (A')
                 (A") (A') (A")
       Virtual   (A') (A') (A') (A') (A") (A') (A') (A") (A") (A')
                 (A') (A') (A') (A") (A') (A') (A') (A') (A') (A")
                 (A') (A") (A') (A') (A") (A") (A') (A') (A") (A')
                 (A") (A') (A') (A") (A') (A') (A') (A") (A") (A')
                 (A') (A') (A') (A") (A') (A') (A') (A") (A') (A')
                 (A") (A') (A') (A') (A") (A") (A') (A") (A') (A")
                 (A') (A") (A') (A') (A') (A') (A') (A") (A") (A')
                 (A') (A') (A") (A') (A') (A') (A") (A') (A") (A')
                 (A') (A") (A") (A') (A') (A") (A') (A") (A') (A')
                 (A') (A") (A') (A') (A') (A") (A') (A') (A") (A')
                 (A") (A") (A') (A") (A') (A") (A") (A') (A') (A')
                 (A") (A') (A') (A") (A') (A') (A') (A") (A') (A')
                 (A") (A') (A") (A') (A') (A') (A") (A') (A") (A')
                 (A') (A") (A') (A') (A") (A') (A') (A") (A") (A')
                 (A') (A') (A") (A') (A") (A') (A') (A") (A") (A')
                 (A") (A') (A') (A") (A') (A') (A") (A') (A") (A')
                 (A') (A") (A") (A') (A') (A") (A') (A') (A") (A')
                 (A") (A") (A') (A") (A') (A') (A") (A') (A") (A')
                 (A') (A") (A') (A") (A') (A') (A") (A") (A') (A')
                 (A") (A') (A") (A") (A') (A') (A') (A") (A") (A')
                 (A') (A') (A') (A") (A") (A') (A') (A') (A') (A')
                 (A') (A') (A') (A') (A') (A') (A') (A')
 Beta  Orbitals:
       Occupied  (A') (A') (A') (A') (A') (A') (A') (A') (A") (A')
                 (A") (A')
       Virtual   (A") (A') (A') (A') (A') (A") (A') (A') (A") (A")
                 (A') (A') (A') (A") (A') (A') (A') (A') (A') (A')
                 (A") (A') (A') (A") (A') (A") (A") (A') (A') (A")
                 (A') (A") (A') (A") (A') (A') (A') (A') (A") (A")
                 (A') (A') (A') (A') (A") (A') (A') (A') (A") (A')
                 (A') (A") (A') (A') (A') (A") (A") (A') (A") (A')
                 (A') (A") (A") (A') (A') (A') (A') (A') (A") (A")
                 (A') (A') (A') (A") (A') (A') (A') (A") (A') (A")
                 (A') (A') (A") (A") (A') (A') (A") (A') (A") (A')
                 (A') (A') (A") (A') (A') (A') (A") (A') (A') (A")
                 (A') (A") (A") (A') (A") (A') (A") (A") (A') (A')
                 (A') (A") (A') (A') (A") (A') (A') (A') (A") (A')
                 (A') (A") (A') (A") (A') (A') (A') (A") (A') (A")
                 (A') (A') (A") (A') (A') (A") (A') (A') (A") (A")
                 (A') (A') (A') (A") (A') (A") (A') (A') (A") (A")
                 (A') (A") (A') (A') (A') (A") (A') (A") (A') (A")
                 (A') (A') (A") (A") (A') (A') (A") (A') (A') (A")
                 (A') (A") (A") (A") (A') (A') (A') (A") (A') (A")
                 (A') (A') (A") (A') (A") (A') (A') (A") (A') (A")
                 (A') (A") (A') (A") (A") (A') (A') (A') (A") (A")
                 (A') (A') (A') (A') (A") (A") (A') (A') (A') (A')
                 (A') (A') (A') (A') (A') (A') (A') (A') (A')
    12 initial guesses have been made.
 Convergence on wavefunction:    0.001000000000000
 Davidson Disk Diagonalization:  ConvIn= 1.00D-03 SkipCon=T Conv= 1.00D-03.
 Max sub-space:  2000 roots to seek:    12 dimension of matrix:         5462
 Iteration     1 Dimension    12 NMult     0 NNew     12
 Estimated number of processors is:   19
 CISAX will form     1 AO SS matrices at one time.
 NMat=     1 NSing=     1 JSym2X= 2.
 FoFJK:  IHMeth= 1 ICntrl=       0 DoSepK=F KAlg= 0 I1Cent=           0 FoldK=F
 IRaf= 980000000 NMat=       1 IRICut=       1 DoRegI=T DoRafI=F ISym2E= 2 IDoP0=0 IntGTp=1.
 FoFCou: FMM=F IPFlag=           0 FMFlag=      100000 FMFlg1=           0
         NFxFlg=           0 DoJE=F BraDBF=F KetDBF=F FulRan=T
         wScrn=  0.000000 ICntrl=         0 IOpCl=  1 I1Cent=           0 NGrid=           0
         NMat0=    1 NMatS0=      1 NMatT0=    0 NMatD0=    1 NMtDS0=    0 NMtDT0=    0
 Integrals replicated using symmetry in FoFCou.
 CoulSu:  requested number of processors reduced to:  20 ShMem   1 Linda.
 NMat=     1 NSing=     1 JSym2X= 2.
 CoulSu:  requested number of processors reduced to:  20 ShMem   1 Linda.
 NMat=     1 NSing=     1 JSym2X= 2.
 CoulSu:  requested number of processors reduced to:  20 ShMem   1 Linda.
 NMat=     1 NSing=     1 JSym2X= 2.
 CoulSu:  requested number of processors reduced to:  20 ShMem   1 Linda.
 NMat=     1 NSing=     1 JSym2X= 2.
 CoulSu:  requested number of processors reduced to:  20 ShMem   1 Linda.
 NMat=     1 NSing=     1 JSym2X= 2.
 CoulSu:  requested number of processors reduced to:  20 ShMem   1 Linda.
 NMat=     1 NSing=     1 JSym2X= 2.
 CoulSu:  requested number of processors reduced to:  20 ShMem   1 Linda.
 NMat=     1 NSing=     1 JSym2X= 2.
 CoulSu:  requested number of processors reduced to:  20 ShMem   1 Linda.
 NMat=     1 NSing=     1 JSym2X= 2.
 CoulSu:  requested number of processors reduced to:  20 ShMem   1 Linda.
 NMat=     1 NSing=     1 JSym2X= 2.
 CoulSu:  requested number of processors reduced to:  20 ShMem   1 Linda.
 NMat=     1 NSing=     1 JSym2X= 2.
 CoulSu:  requested number of processors reduced to:  20 ShMem   1 Linda.
 NMat=     1 NSing=     1 JSym2X= 2.
 CoulSu:  requested number of processors reduced to:  20 ShMem   1 Linda.
 Excitation Energies [eV] at current iteration:
 Root      1 :     2.615822279387638
 Root      2 :     2.896585719495737
 Root      3 :     3.617093196725892
 Root      4 :     5.425707730387082
 Root      5 :     5.591176337756068
 Root      6 :     6.297087387567124
 Root      7 :     8.157003508704756
 Root      8 :     8.354846752807411
 Root      9 :     8.964465662766507
 Root     10 :     9.271371789365798
 Root     11 :     9.365552998959313
 Root     12 :    15.184336380022610
 Iteration     2 Dimension    24 NMult    12 NNew     12
 Estimated number of processors is:   19
 CISAX will form     1 AO SS matrices at one time.
 NMat=     1 NSing=     1 JSym2X= 2.
 CoulSu:  requested number of processors reduced to:  20 ShMem   1 Linda.
 NMat=     1 NSing=     1 JSym2X= 2.
 CoulSu:  requested number of processors reduced to:  20 ShMem   1 Linda.
 NMat=     1 NSing=     1 JSym2X= 2.
 CoulSu:  requested number of processors reduced to:  20 ShMem   1 Linda.
 NMat=     1 NSing=     1 JSym2X= 2.
 CoulSu:  requested number of processors reduced to:  20 ShMem   1 Linda.
 NMat=     1 NSing=     1 JSym2X= 2.
 CoulSu:  requested number of processors reduced to:  20 ShMem   1 Linda.
 NMat=     1 NSing=     1 JSym2X= 2.
 CoulSu:  requested number of processors reduced to:  20 ShMem   1 Linda.
 NMat=     1 NSing=     1 JSym2X= 2.
 CoulSu:  requested number of processors reduced to:  20 ShMem   1 Linda.
 NMat=     1 NSing=     1 JSym2X= 2.
 CoulSu:  requested number of processors reduced to:  20 ShMem   1 Linda.
 NMat=     1 NSing=     1 JSym2X= 2.
 CoulSu:  requested number of processors reduced to:  20 ShMem   1 Linda.
 NMat=     1 NSing=     1 JSym2X= 2.
 CoulSu:  requested number of processors reduced to:  20 ShMem   1 Linda.
 NMat=     1 NSing=     1 JSym2X= 2.
 CoulSu:  requested number of processors reduced to:  20 ShMem   1 Linda.
 NMat=     1 NSing=     1 JSym2X= 2.
 CoulSu:  requested number of processors reduced to:  20 ShMem   1 Linda.
 New state      1 was old state      2
 Root      1 not converged, maximum delta is    0.105125541743481
 Excitation Energies [eV] at current iteration:
 Root      1 :     1.760329200428337   Change is   -1.136256519067400
 Root      2 :     2.132494662248105   Change is   -0.483327617139533
 Root      3 :     3.051176721910708   Change is   -0.565916474815184
 Root      4 :     4.845708380158062   Change is   -0.579999350229019
 Root      5 :     5.001425686379763   Change is   -0.589750651376306
 Root      6 :     5.825968777136703   Change is   -0.471118610430421
 Root      7 :     7.715517785197093   Change is   -0.441485723507663
 Root      8 :     8.077923154420516   Change is   -0.276923598386895
 Root      9 :     8.684977357341698   Change is   -0.279488305424810
 Root     10 :     8.978991467892053   Change is   -0.292380321473744
 Root     11 :     9.074189514682219   Change is   -0.291363484277093
 Root     12 :    10.252309455856120   Change is   -4.932026924166483
 Iteration     3 Dimension    27 NMult    24 NNew      3
 Estimated number of processors is:   19
 CISAX will form     1 AO SS matrices at one time.
 NMat=     1 NSing=     1 JSym2X= 2.
 CoulSu:  requested number of processors reduced to:  20 ShMem   1 Linda.
 NMat=     1 NSing=     1 JSym2X= 2.
 CoulSu:  requested number of processors reduced to:  20 ShMem   1 Linda.
 NMat=     1 NSing=     1 JSym2X= 2.
 CoulSu:  requested number of processors reduced to:  20 ShMem   1 Linda.
 Root      1 not converged, maximum delta is    0.040990702657468
 Excitation Energies [eV] at current iteration:
 Root      1 :     1.644025528209253   Change is   -0.116303672219084
 Root      2 :     2.094676813598199   Change is   -0.037817848649906
 Root      3 :     3.019325087089709   Change is   -0.031851634820998
 Iteration     4 Dimension    30 NMult    27 NNew      3
 Estimated number of processors is:   19
 CISAX will form     1 AO SS matrices at one time.
 NMat=     1 NSing=     1 JSym2X= 2.
 CoulSu:  requested number of processors reduced to:  20 ShMem   1 Linda.
 NMat=     1 NSing=     1 JSym2X= 2.
 CoulSu:  requested number of processors reduced to:  20 ShMem   1 Linda.
 NMat=     1 NSing=     1 JSym2X= 2.
 CoulSu:  requested number of processors reduced to:  20 ShMem   1 Linda.
 Root      1 not converged, maximum delta is    0.016455442145278
 Excitation Energies [eV] at current iteration:
 Root      1 :     1.622592582336399   Change is   -0.021432945872854
 Root      2 :     2.091518905012111   Change is   -0.003157908586088
 Root      3 :     3.017516479902361   Change is   -0.001808607187348
 Iteration     5 Dimension    33 NMult    30 NNew      3
 Estimated number of processors is:   19
 CISAX will form     1 AO SS matrices at one time.
 NMat=     1 NSing=     1 JSym2X= 2.
 CoulSu:  requested number of processors reduced to:  20 ShMem   1 Linda.
 NMat=     1 NSing=     1 JSym2X= 2.
 CoulSu:  requested number of processors reduced to:  20 ShMem   1 Linda.
 NMat=     1 NSing=     1 JSym2X= 2.
 CoulSu:  requested number of processors reduced to:  20 ShMem   1 Linda.
 Root      1 not converged, maximum delta is    0.006547803539175
 Excitation Energies [eV] at current iteration:
 Root      1 :     1.619685897478774   Change is   -0.002906684857625
 Root      2 :     2.091352796615616   Change is   -0.000166108396495
 Root      3 :     3.017375090429776   Change is   -0.000141389472585
 Iteration     6 Dimension    36 NMult    33 NNew      3
 Estimated number of processors is:   19
 CISAX will form     1 AO SS matrices at one time.
 NMat=     1 NSing=     1 JSym2X= 2.
 CoulSu:  requested number of processors reduced to:  20 ShMem   1 Linda.
 NMat=     1 NSing=     1 JSym2X= 2.
 CoulSu:  requested number of processors reduced to:  20 ShMem   1 Linda.
 NMat=     1 NSing=     1 JSym2X= 2.
 CoulSu:  requested number of processors reduced to:  20 ShMem   1 Linda.
 Root      1 not converged, maximum delta is    0.002726546409356
 Excitation Energies [eV] at current iteration:
 Root      1 :     1.619302883917354   Change is   -0.000383013561419
 Root      2 :     2.091337510974316   Change is   -0.000015285641299
 Root      3 :     3.017361692628233   Change is   -0.000013397801543
 Iteration     7 Dimension    39 NMult    36 NNew      3
 Estimated number of processors is:   19
 CISAX will form     1 AO SS matrices at one time.
 NMat=     1 NSing=     1 JSym2X= 2.
 CoulSu:  requested number of processors reduced to:  20 ShMem   1 Linda.
 NMat=     1 NSing=     1 JSym2X= 2.
 CoulSu:  requested number of processors reduced to:  20 ShMem   1 Linda.
 NMat=     1 NSing=     1 JSym2X= 2.
 CoulSu:  requested number of processors reduced to:  20 ShMem   1 Linda.
 Root      1 has converged.
 Excitation Energies [eV] at current iteration:
 Root      1 :     1.619256846696011   Change is   -0.000046037221344
 Root      2 :     2.091336019467051   Change is   -0.000001491507266
 Root      3 :     3.017360823599747   Change is   -0.000000869028486
 Convergence achieved on expansion vectors.
 ***********************************************************************
 Stability analysis using <AA,BB:AA,BB> singles matrix:
 ***********************************************************************
 1PDM for each excited state written to RWF  633
 Ground to excited state transition densities written to RWF  633

 Eigenvectors of the stability matrix:
 
 Eigenvector   1:  3.438-A'   Eigenvalue= 0.0595066  <S**2>=2.704
      8A -> 14A        0.14710
     12A -> 14A       -0.63174
      7B -> 14B       -0.14307
     10B -> 14B        0.10167
     12B -> 14B        0.66613
 The wavefunction is stable under the perturbations considered.
 Leave Link  914 at Sun Apr 18 11:17:04 2021, MaxMem=   104857600 cpu:            8827.1 elap:             221.0
 (Enter /s/ls4/users/knvvv/bin/g16sse/l508.exe)
 The wavefunction is already stable.
 Leave Link  508 at Sun Apr 18 11:17:04 2021, MaxMem=   104857600 cpu:               2.3 elap:               0.1
 (Enter /s/ls4/users/knvvv/bin/g16sse/l601.exe)
 Copying SCF densities to generalized density rwf, IOpCl= 1 IROHF=0.

 **********************************************************************

            Population analysis using the SCF density.

 **********************************************************************

 Orbital symmetries:
 Alpha Orbitals:
       Occupied  (A') (A') (A') (A') (A') (A') (A") (A') (A') (A')
                 (A") (A') (A")
       Virtual   (A') (A') (A') (A') (A") (A') (A') (A") (A") (A')
                 (A') (A') (A') (A") (A') (A') (A') (A') (A') (A")
                 (A') (A") (A') (A') (A") (A") (A') (A') (A") (A')
                 (A") (A') (A') (A") (A') (A') (A') (A") (A") (A')
                 (A') (A') (A') (A") (A') (A') (A') (A") (A') (A')
                 (A") (A') (A') (A') (A") (A") (A') (A") (A') (A")
                 (A') (A") (A') (A') (A') (A') (A') (A") (A") (A')
                 (A') (A') (A") (A') (A') (A') (A") (A') (A") (A')
                 (A') (A") (A") (A') (A') (A") (A') (A") (A') (A')
                 (A') (A") (A') (A') (A') (A") (A') (A') (A") (A')
                 (A") (A") (A') (A") (A') (A") (A") (A') (A') (A')
                 (A") (A') (A') (A") (A') (A') (A') (A") (A') (A')
                 (A") (A') (A") (A') (A') (A') (A") (A') (A") (A')
                 (A') (A") (A') (A') (A") (A') (A') (A") (A") (A')
                 (A') (A') (A") (A') (A") (A') (A') (A") (A") (A')
                 (A") (A') (A') (A") (A') (A') (A") (A') (A") (A')
                 (A') (A") (A") (A') (A') (A") (A') (A') (A") (A')
                 (A") (A") (A') (A") (A') (A') (A") (A') (A") (A')
                 (A') (A") (A') (A") (A') (A') (A") (A") (A') (A')
                 (A") (A') (A") (A") (A') (A') (A') (A") (A") (A')
                 (A') (A') (A') (A") (A") (A') (A') (A') (A') (A')
                 (A') (A') (A') (A') (A') (A') (A') (A')
 Beta  Orbitals:
       Occupied  (A') (A') (A') (A') (A') (A') (A') (A') (A") (A')
                 (A") (A')
       Virtual   (A") (A') (A') (A') (A') (A") (A') (A') (A") (A")
                 (A') (A') (A') (A") (A') (A') (A') (A') (A') (A')
                 (A") (A') (A') (A") (A') (A") (A") (A') (A') (A")
                 (A') (A") (A') (A") (A') (A') (A') (A') (A") (A")
                 (A') (A') (A') (A') (A") (A') (A') (A') (A") (A')
                 (A') (A") (A') (A') (A') (A") (A") (A') (A") (A')
                 (A') (A") (A") (A') (A') (A') (A') (A') (A") (A")
                 (A') (A') (A') (A") (A') (A') (A') (A") (A') (A")
                 (A') (A') (A") (A") (A') (A') (A") (A') (A") (A')
                 (A') (A') (A") (A') (A') (A') (A") (A') (A') (A")
                 (A') (A") (A") (A') (A") (A') (A") (A") (A') (A')
                 (A') (A") (A') (A') (A") (A') (A') (A') (A") (A')
                 (A') (A") (A') (A") (A') (A') (A') (A") (A') (A")
                 (A') (A') (A") (A') (A') (A") (A') (A') (A") (A")
                 (A') (A') (A') (A") (A') (A") (A') (A') (A") (A")
                 (A') (A") (A') (A') (A') (A") (A') (A") (A') (A")
                 (A') (A') (A") (A") (A') (A') (A") (A') (A') (A")
                 (A') (A") (A") (A") (A') (A') (A') (A") (A') (A")
                 (A') (A') (A") (A') (A") (A') (A') (A") (A') (A")
                 (A') (A") (A') (A") (A") (A') (A') (A') (A") (A")
                 (A') (A') (A') (A') (A") (A") (A') (A') (A') (A')
                 (A') (A') (A') (A') (A') (A') (A') (A') (A')
 The electronic state is 2-A".
 Alpha  occ. eigenvalues --  -19.85207 -19.75706 -19.70402  -1.44007  -1.15991
 Alpha  occ. eigenvalues --   -0.94738  -0.67526  -0.67000  -0.64691  -0.53735
 Alpha  occ. eigenvalues --   -0.45707  -0.40591  -0.38468
 Alpha virt. eigenvalues --   -0.03788   0.00877   0.03941   0.04783   0.05274
 Alpha virt. eigenvalues --    0.07798   0.08656   0.08919   0.09841   0.11801
 Alpha virt. eigenvalues --    0.13006   0.15763   0.19435   0.19653   0.21685
 Alpha virt. eigenvalues --    0.24546   0.27080   0.29931   0.34342   0.34895
 Alpha virt. eigenvalues --    0.37667   0.38299   0.38417   0.39789   0.40511
 Alpha virt. eigenvalues --    0.42337   0.43272   0.44184   0.45827   0.47410
 Alpha virt. eigenvalues --    0.47952   0.52721   0.52756   0.52918   0.58821
 Alpha virt. eigenvalues --    0.59398   0.60064   0.61240   0.63973   0.65870
 Alpha virt. eigenvalues --    0.67562   0.73302   0.80118   0.86186   0.91420
 Alpha virt. eigenvalues --    0.98298   1.05190   1.08535   1.10775   1.18508
 Alpha virt. eigenvalues --    1.20680   1.23116   1.27246   1.31024   1.31035
 Alpha virt. eigenvalues --    1.40033   1.42597   1.44225   1.47334   1.48752
 Alpha virt. eigenvalues --    1.49935   1.51379   1.52548   1.56932   1.61482
 Alpha virt. eigenvalues --    1.70477   1.71390   1.77056   1.88899   1.94154
 Alpha virt. eigenvalues --    2.00386   2.08120   2.10789   2.19868   2.24480
 Alpha virt. eigenvalues --    2.30778   2.45462   2.60547   2.62196   2.65228
 Alpha virt. eigenvalues --    2.78425   2.86929   2.90298   2.97442   3.00914
 Alpha virt. eigenvalues --    3.13241   3.15801   3.18068   3.24098   3.26141
 Alpha virt. eigenvalues --    3.36000   3.45127   3.48182   3.58658   3.59429
 Alpha virt. eigenvalues --    3.80632   3.80796   3.87672   3.88426   3.93002
 Alpha virt. eigenvalues --    3.96144   3.98113   4.05103   4.05790   4.11593
 Alpha virt. eigenvalues --    4.12249   4.14712   4.18110   4.20167   4.24968
 Alpha virt. eigenvalues --    4.35884   4.40508   4.45047   4.46460   4.55969
 Alpha virt. eigenvalues --    4.61200   4.62314   4.69259   4.78384   4.98660
 Alpha virt. eigenvalues --    4.98706   5.04949   5.24291   5.26876   5.33770
 Alpha virt. eigenvalues --    5.46711   5.47773   5.68018   5.71977   5.81687
 Alpha virt. eigenvalues --    5.97991   6.41292   6.53352   7.10016   7.21190
 Alpha virt. eigenvalues --    7.28582   7.38072   7.60132   7.64689   7.72730
 Alpha virt. eigenvalues --    7.75804   7.86966   8.06400   8.14148   8.22834
 Alpha virt. eigenvalues --    8.30197   8.41008   8.42738   8.46125   8.47639
 Alpha virt. eigenvalues --    8.48899   8.56877   8.63044   8.72553   8.72976
 Alpha virt. eigenvalues --    8.79461   8.89695   8.97014   9.13414   9.22035
 Alpha virt. eigenvalues --    9.34433   9.42192   9.98304   9.99666  10.13966
 Alpha virt. eigenvalues --   10.14963  10.32958  10.46133  10.53174  10.61414
 Alpha virt. eigenvalues --   10.67960  10.69476  10.74324  10.75776  10.81132
 Alpha virt. eigenvalues --   10.85880  10.87374  10.93806  11.01291  11.13208
 Alpha virt. eigenvalues --   11.20026  11.24390  11.25627  11.30039  11.40355
 Alpha virt. eigenvalues --   11.44198  11.48901  11.50260  11.53651  11.65665
 Alpha virt. eigenvalues --   11.70955  11.73128  11.81711  11.83996  11.91772
 Alpha virt. eigenvalues --   11.94792  11.97671  11.99888  12.08790  12.13042
 Alpha virt. eigenvalues --   12.22107  12.56497  12.64932  13.54359  13.57682
 Alpha virt. eigenvalues --   13.60710  13.65587  13.67684  13.87738  14.32309
 Alpha virt. eigenvalues --   15.37264  16.33578  47.50755  47.97585  48.18554
 Alpha virt. eigenvalues --  250.49036 251.02049 251.23319
  Beta  occ. eigenvalues --  -19.83994 -19.74141 -19.70558  -1.40305  -1.15773
  Beta  occ. eigenvalues --   -0.89802  -0.65322  -0.62049  -0.57298  -0.53227
  Beta  occ. eigenvalues --   -0.42616  -0.38469
  Beta virt. eigenvalues --   -0.07685  -0.02867   0.00867   0.03986   0.04829
  Beta virt. eigenvalues --    0.05565   0.07834   0.08664   0.09248   0.10426
  Beta virt. eigenvalues --    0.11902   0.13030   0.15758   0.19762   0.19854
  Beta virt. eigenvalues --    0.21825   0.24913   0.27047   0.31326   0.34431
  Beta virt. eigenvalues --    0.34663   0.37917   0.38535   0.38867   0.40018
  Beta virt. eigenvalues --    0.40808   0.42148   0.43225   0.44112   0.45958
  Beta virt. eigenvalues --    0.47667   0.47816   0.52656   0.52728   0.52952
  Beta virt. eigenvalues --    0.58736   0.59668   0.60124   0.61442   0.64088
  Beta virt. eigenvalues --    0.66089   0.67685   0.72944   0.79884   0.86160
  Beta virt. eigenvalues --    0.91824   0.98346   1.05287   1.09381   1.10955
  Beta virt. eigenvalues --    1.18714   1.22059   1.23807   1.27945   1.31435
  Beta virt. eigenvalues --    1.32668   1.40402   1.43121   1.47078   1.48032
  Beta virt. eigenvalues --    1.50357   1.51423   1.51768   1.53264   1.57176
  Beta virt. eigenvalues --    1.61615   1.70601   1.71628   1.77749   1.89972
  Beta virt. eigenvalues --    1.94420   2.00442   2.08083   2.10939   2.19899
  Beta virt. eigenvalues --    2.24506   2.30845   2.45459   2.60531   2.62140
  Beta virt. eigenvalues --    2.65279   2.78621   2.86876   2.90546   2.97244
  Beta virt. eigenvalues --    3.01303   3.15527   3.16409   3.18812   3.24635
  Beta virt. eigenvalues --    3.26504   3.35864   3.45243   3.47763   3.58630
  Beta virt. eigenvalues --    3.60357   3.81272   3.81648   3.88725   3.90406
  Beta virt. eigenvalues --    3.94198   3.97802   3.98488   4.05722   4.07172
  Beta virt. eigenvalues --    4.11744   4.12524   4.15069   4.18637   4.20935
  Beta virt. eigenvalues --    4.24834   4.35919   4.40086   4.45271   4.46386
  Beta virt. eigenvalues --    4.56167   4.61040   4.63203   4.70512   4.78110
  Beta virt. eigenvalues --    4.98833   5.03497   5.05738   5.24387   5.27329
  Beta virt. eigenvalues --    5.33970   5.46563   5.51513   5.68036   5.71981
  Beta virt. eigenvalues --    5.81370   5.98004   6.41116   6.53173   7.09765
  Beta virt. eigenvalues --    7.21041   7.28404   7.37750   7.59971   7.64662
  Beta virt. eigenvalues --    7.73366   7.75719   7.86615   8.06916   8.14347
  Beta virt. eigenvalues --    8.23281   8.30363   8.41646   8.43428   8.45847
  Beta virt. eigenvalues --    8.47553   8.49136   8.56848   8.62176   8.76493
  Beta virt. eigenvalues --    8.76611   8.80322   8.89292   8.97124   9.13763
  Beta virt. eigenvalues --    9.21382   9.34525   9.42372   9.97152   9.98613
  Beta virt. eigenvalues --   10.13624  10.14766  10.32666  10.46052  10.54925
  Beta virt. eigenvalues --   10.61210  10.68516  10.74043  10.80788  10.81653
  Beta virt. eigenvalues --   10.83679  10.88802  10.90129  10.93429  11.01627
  Beta virt. eigenvalues --   11.13806  11.20297  11.26498  11.27710  11.34127
  Beta virt. eigenvalues --   11.40328  11.44141  11.48771  11.54431  11.55959
  Beta virt. eigenvalues --   11.66329  11.70516  11.74499  11.88244  11.90623
  Beta virt. eigenvalues --   11.95428  11.96583  12.03871  12.06026  12.07005
  Beta virt. eigenvalues --   12.13124  12.21594  12.55950  12.64143  13.57027
  Beta virt. eigenvalues --   13.59023  13.61995  13.64396  13.72232  13.89631
  Beta virt. eigenvalues --   14.36743  15.36706  16.32820  47.52738  48.00715
  Beta virt. eigenvalues --   48.16250 250.46853 250.99916 251.22356
          Condensed to atoms (all electrons):
               1          2          3          4
     1  O    8.121678   0.033511  -0.033030  -0.001763
     2  O    0.033511   7.824696  -0.022139   0.009058
     3  O   -0.033030  -0.022139   8.274372   0.214078
     4  H   -0.001763   0.009058   0.214078   0.379824
          Atomic-Atomic Spin Densities.
               1          2          3          4
     1  O    0.832638  -0.160969   0.014616  -0.000815
     2  O   -0.160969   0.578216   0.001712  -0.001359
     3  O    0.014616   0.001712  -0.127378   0.000301
     4  H   -0.000815  -0.001359   0.000301   0.009553
 Mulliken charges and spin densities:
               1          2
     1  O   -0.120395   0.685470
     2  O    0.154874   0.417600
     3  O   -0.433281  -0.110749
     4  H    0.398802   0.007680
 Sum of Mulliken charges =  -0.00000   1.00000
 Mulliken charges and spin densities with hydrogens summed into heavy atoms:
               1          2
     1  O   -0.120395   0.685470
     2  O    0.154874   0.417600
     3  O   -0.034479  -0.103070
 Electronic spatial extent (au):  <R**2>=            136.4209
 Charge=             -0.0000 electrons
 Dipole moment (field-independent basis, Debye):
    X=             -1.7635    Y=              1.0265    Z=              0.0000  Tot=              2.0405
 Quadrupole moment (field-independent basis, Debye-Ang):
   XX=            -12.9414   YY=            -17.5341   ZZ=            -16.6160
   XY=             -0.7025   XZ=             -0.0000   YZ=              0.0000
 Traceless Quadrupole moment (field-independent basis, Debye-Ang):
   XX=              2.7558   YY=             -1.8369   ZZ=             -0.9188
   XY=             -0.7025   XZ=             -0.0000   YZ=              0.0000
 Octapole moment (field-independent basis, Debye-Ang**2):
  XXX=            -10.2254  YYY=              1.8004  ZZZ=             -0.0000  XYY=              0.5774
  XXY=             -0.0633  XXZ=              0.0000  XZZ=              0.8771  YZZ=              0.8575
  YYZ=             -0.0000  XYZ=              0.0000
 Hexadecapole moment (field-independent basis, Debye-Ang**3):
 XXXX=            -75.3320 YYYY=            -41.2814 ZZZZ=            -13.0175 XXXY=            -15.0627
 XXXZ=              0.0000 YYYX=            -16.0066 YYYZ=              0.0000 ZZZX=              0.0000
 ZZZY=              0.0000 XXYY=            -23.3152 XXZZ=            -18.6278 YYZZ=             -9.3815
 XXYZ=              0.0000 YYXZ=              0.0000 ZZXY=             -5.6791
 N-N= 7.151371549079D+01 E-N=-6.775877219060D+02  KE= 2.252821404606D+02
                          Isotropic Fermi Contact Couplings
        Atom                 a.u.       MegaHertz       Gauss      10(-4) cm-1
     1  O(17)              0.10390     -62.98650     -22.47515     -21.01003
     2  O(17)              0.00770      -4.66476      -1.66450      -1.55600
     3  O(17)             -0.02730      16.54720       5.90445       5.51955
     4  H(1)               0.00143       6.37669       2.27536       2.12704
 PrsmSu:  requested number of processors reduced to:  21 ShMem   1 Linda.
 --------------------------------------------------------
       Center         ----  Spin Dipole Couplings  ----
                      3XX-RR        3YY-RR        3ZZ-RR
 --------------------------------------------------------
     1   Atom       -1.598251     -1.235331      2.833582
     2   Atom       -1.231202     -0.762348      1.993550
     3   Atom       -0.042406     -0.355368      0.397774
     4   Atom        0.004462     -0.009695      0.005233
 --------------------------------------------------------
                        XY            XZ            YZ
 --------------------------------------------------------
     1   Atom        0.168459     -0.000000      0.000000
     2   Atom        0.198164     -0.000000      0.000000
     3   Atom       -0.346835     -0.000000     -0.000000
     4   Atom        0.019214      0.000000     -0.000000
 --------------------------------------------------------


 ---------------------------------------------------------------------------------
              Anisotropic Spin Dipole Couplings in Principal Axis System
 ---------------------------------------------------------------------------------

       Atom             a.u.   MegaHertz   Gauss  10(-4) cm-1        Axes

              Baa    -1.6644   120.434    42.974    40.173  0.9308 -0.3655  0.0000
     1 O(17)  Bbb    -1.1692    84.602    30.188    28.220  0.3655  0.9308  0.0000
              Bcc     2.8336  -205.036   -73.162   -68.393  0.0000  0.0000  1.0000
 
              Baa    -1.3037    94.337    33.662    31.468  0.9391 -0.3437  0.0000
     2 O(17)  Bbb    -0.6898    49.914    17.811    16.650  0.3437  0.9391 -0.0000
              Bcc     1.9935  -144.252   -51.473   -48.117  0.0000  0.0000  1.0000
 
              Baa    -0.5794    41.924    14.960    13.984  0.5426  0.8400 -0.0000
     3 O(17)  Bbb     0.1816   -13.141    -4.689    -4.384  0.8400 -0.5426 -0.0000
              Bcc     0.3978   -28.783   -10.270    -9.601  0.0000  0.0000  1.0000
 
              Baa    -0.0231   -12.321    -4.397    -4.110 -0.5720  0.8203 -0.0000
     4 H(1)   Bbb     0.0052     2.792     0.996     0.931  0.0000  0.0000  1.0000
              Bcc     0.0179     9.529     3.400     3.179  0.8203  0.5720 -0.0000
 

 ---------------------------------------------------------------------------------

 PrsmSu:  requested number of processors reduced to:  21 ShMem   1 Linda.
 No NMR shielding tensors so no spin-rotation constants.
 Leave Link  601 at Sun Apr 18 11:17:09 2021, MaxMem=   104857600 cpu:             251.5 elap:               5.6
 (Enter /s/ls4/users/knvvv/bin/g16sse/l9999.exe)

 Test job not archived.
 1\1\GINC-N155\Stability\UM062X\Gen\H1O3(2)\KNVVV\18-Apr-2021\0\\#P M06
 2X/GEN Integral=UltraFineGrid SCF=NoSymm Stable=(RExt, Opt) IOp(1/33=1
 )\\Database calculations.\\0,2\O,0,0.,0.,0.\O,0,0.,0.,1.228\O,0,1.4931
 777803,0.,1.7655770794\H,0,1.2803666545,0.,2.709894518\\Version=ES64L-
 G16RevA.03\State=2-A"\HF=-226.0731778\S2=0.775535\S2-1=0.\S2A=0.750247
 \RMSD=8.349e-09\Dipole=-0.1834656,0.,0.7815578\Quadrupole=-1.366036,-0
 .6831287,2.0491647,0.,0.5212321,0.\PG=CS [SG(H1O3)]\\@


 THE HURRIEDER I GO, THE BEHINDER I GET.
 Job cpu time:       0 days  3 hours  6 minutes 52.1 seconds.
 Elapsed time:       0 days  0 hours  4 minutes 46.8 seconds.
 File lengths (MBytes):  RWF=    166 Int=      0 D2E=      0 Chk=      8 Scr=      1
 Normal termination of Gaussian 16 at Sun Apr 18 11:17:10 2021.
