 Entering Gaussian System, Link 0=/s/ls4/users/knvvv/bin/g16sse/g16
 Input=data/database/M062X--def2-QZVPPD--170_f2o_W4-11.gjf
 Output=data/database/M062X--def2-QZVPPD--170_f2o_W4-11.log
 Initial command:
 /s/ls4/users/knvvv/bin/g16sse/l1.exe "/s/ls4/users/knvvv/bin/scratch/Gau-13631.inp" -scrdir="/s/ls4/users/knvvv/bin/scratch/"
 Entering Link 1 = /s/ls4/users/knvvv/bin/g16sse/l1.exe PID=     13632.
  
 Copyright (c) 1988,1990,1992,1993,1995,1998,2003,2009,2016,
            Gaussian, Inc.  All Rights Reserved.
  
 This is part of the Gaussian(R) 16 program.  It is based on
 the Gaussian(R) 09 system (copyright 2009, Gaussian, Inc.),
 the Gaussian(R) 03 system (copyright 2003, Gaussian, Inc.),
 the Gaussian(R) 98 system (copyright 1998, Gaussian, Inc.),
 the Gaussian(R) 94 system (copyright 1995, Gaussian, Inc.),
 the Gaussian 92(TM) system (copyright 1992, Gaussian, Inc.),
 the Gaussian 90(TM) system (copyright 1990, Gaussian, Inc.),
 the Gaussian 88(TM) system (copyright 1988, Gaussian, Inc.),
 the Gaussian 86(TM) system (copyright 1986, Carnegie Mellon
 University), and the Gaussian 82(TM) system (copyright 1983,
 Carnegie Mellon University). Gaussian is a federally registered
 trademark of Gaussian, Inc.
  
 This software contains proprietary and confidential information,
 including trade secrets, belonging to Gaussian, Inc.
  
 This software is provided under written license and may be
 used, copied, transmitted, or stored only in accord with that
 written license.
  
 The following legend is applicable only to US Government
 contracts under FAR:
  
                    RESTRICTED RIGHTS LEGEND
  
 Use, reproduction and disclosure by the US Government is
 subject to restrictions as set forth in subparagraphs (a)
 and (c) of the Commercial Computer Software - Restricted
 Rights clause in FAR 52.227-19.
  
 Gaussian, Inc.
 340 Quinnipiac St., Bldg. 40, Wallingford CT 06492
  
  
 ---------------------------------------------------------------
 Warning -- This program may not be used in any manner that
 competes with the business of Gaussian, Inc. or will provide
 assistance to any competitor of Gaussian, Inc.  The licensee
 of this program is prohibited from giving any competitor of
 Gaussian, Inc. access to this program.  By using this program,
 the user acknowledges that Gaussian, Inc. is engaged in the
 business of creating and licensing software in the field of
 computational chemistry and represents and warrants to the
 licensee that it is not a competitor of Gaussian, Inc. and that
 it will not use this program in any manner prohibited above.
 ---------------------------------------------------------------
  

 Cite this work as:
 Gaussian 16, Revision A.03,
 M. J. Frisch, G. W. Trucks, H. B. Schlegel, G. E. Scuseria, 
 M. A. Robb, J. R. Cheeseman, G. Scalmani, V. Barone, 
 G. A. Petersson, H. Nakatsuji, X. Li, M. Caricato, A. V. Marenich, 
 J. Bloino, B. G. Janesko, R. Gomperts, B. Mennucci, H. P. Hratchian, 
 J. V. Ortiz, A. F. Izmaylov, J. L. Sonnenberg, D. Williams-Young, 
 F. Ding, F. Lipparini, F. Egidi, J. Goings, B. Peng, A. Petrone, 
 T. Henderson, D. Ranasinghe, V. G. Zakrzewski, J. Gao, N. Rega, 
 G. Zheng, W. Liang, M. Hada, M. Ehara, K. Toyota, R. Fukuda, 
 J. Hasegawa, M. Ishida, T. Nakajima, Y. Honda, O. Kitao, H. Nakai, 
 T. Vreven, K. Throssell, J. A. Montgomery, Jr., J. E. Peralta, 
 F. Ogliaro, M. J. Bearpark, J. J. Heyd, E. N. Brothers, K. N. Kudin, 
 V. N. Staroverov, T. A. Keith, R. Kobayashi, J. Normand, 
 K. Raghavachari, A. P. Rendell, J. C. Burant, S. S. Iyengar, 
 J. Tomasi, M. Cossi, J. M. Millam, M. Klene, C. Adamo, R. Cammi, 
 J. W. Ochterski, R. L. Martin, K. Morokuma, O. Farkas, 
 J. B. Foresman, and D. J. Fox, Gaussian, Inc., Wallingford CT, 2016.
 
 ******************************************
 Gaussian 16:  ES64L-G16RevA.03 25-Dec-2016
                17-Apr-2021 
 ******************************************
 %RWF=temp6_59012,70GB
 %nprocshared=48
 Will use up to   48 processors via shared memory.
 Default route: MaxDisk=80GB
 ----------------------------------------------------------------------
 #P M062X/GEN Integral=UltraFineGrid SCF=NoSymm Stable=(RExt, Opt) IOp(
 1/33=1)
 ----------------------------------------------------------------------
 1/33=1,38=1,172=1/1;
 2/12=2,17=6,18=5,40=1/2;
 3/5=7,11=2,25=1,30=1,74=-55,75=-5/1,2,3;
 4/9=2/1;
 5/5=2,38=5/2;
 6/7=2,8=2,9=2,10=2,28=1/1;
 8/6=1,10=90,11=11/1;
 9/8=-3,42=1,46=1/14;
 5/5=2,8=3,17=40,38=5/8(-2);
 6/7=2,8=2,9=2,10=2,28=1/1;
 99/5=1,9=1/99;
 Leave Link    1 at Sat Apr 17 12:59:13 2021, MaxMem=           0 cpu:              11.4 elap:               0.3
 (Enter /s/ls4/users/knvvv/bin/g16sse/l101.exe)
 ONIOM data not found on unit 2.
 ----------------------
 Database calculations.
 ----------------------
 TstMul:  ICh=     0
 TstMul:  Mul=     1
 TstMul:  ICh=     0
 TstMul:  Mul=     1
 Symbolic Z-matrix:
 Charge =  0 Multiplicity = 1
 F                     0.        0.        0. 
 O                     0.        0.        1.40559 
 F                     1.36902   0.        1.72412 
 
 RdStrC is calling ZToCFu for IStruc=1 NZ=     3.
 PrtBox:  NBox=     1 Levels=  1 BoxLen=    8.00 SMaxX=        3.26
          Shift=            0.000000            0.000000            0.000000
 Box      1 Number                   0 centers from      1 to      3:
 After GenITR:
 ITRead=  0  0  0
 MicOpt= -1 -1 -1
 ITRead=  0  0  0
 MicOpt= -1 -1 -1
 NAtoms=      3 NQM=        3 NQMF=       0 NMMI=      0 NMMIF=      0
                NMic=       0 NMicF=      0.
                    Isotopes and Nuclear Properties:
 (Nuclear quadrupole moments (NQMom) in fm**2, nuclear magnetic moments (NMagM)
  in nuclear magnetons)

  Atom         1           2           3
 IAtWgt=          19          16          19
 AtmWgt=  18.9984033  15.9949146  18.9984033
 NucSpn=           1           0           1
 AtZEff=  -0.0000000  -0.0000000  -0.0000000
 NQMom=    0.0000000   0.0000000   0.0000000
 NMagM=    2.6288670   0.0000000   2.6288670
 AtZNuc=   9.0000000   8.0000000   9.0000000
 No MM parameters found.
 Leave Link  101 at Sat Apr 17 12:59:13 2021, MaxMem=   104857600 cpu:               8.9 elap:               0.2
 (Enter /s/ls4/users/knvvv/bin/g16sse/l202.exe)
                          Input orientation:                          
 ---------------------------------------------------------------------
 Center     Atomic      Atomic             Coordinates (Angstroms)
 Number     Number       Type             X           Y           Z
 ---------------------------------------------------------------------
      1          9           0        0.000000    0.000000    0.000000
      2          8           0        0.000000    0.000000    1.405588
      3          9           0        1.369020    0.000000    1.724115
 ---------------------------------------------------------------------
                    Distance matrix (angstroms):
                    1          2          3
     1  F    0.000000
     2  O    1.405588   0.000000
     3  F    2.201543   1.405588   0.000000
 Stoichiometry    F2O
 Framework group  C2V[C2(O),SGV(F2)]
 Deg. of freedom     2
 Full point group                 C2V     NOp   4
 Largest Abelian subgroup         C2V     NOp   4
 Largest concise Abelian subgroup C2      NOp   2
                         Standard orientation:                         
 ---------------------------------------------------------------------
 Center     Atomic      Atomic             Coordinates (Angstroms)
 Number     Number       Type             X           Y           Z
 ---------------------------------------------------------------------
      1          9           0        0.000000    1.100771   -0.268941
      2          8           0        0.000000    0.000000    0.605118
      3          9           0       -0.000000   -1.100771   -0.268941
 ---------------------------------------------------------------------
 Rotational constants (GHZ):          58.7670661          10.9768022           9.2491924
 Leave Link  202 at Sat Apr 17 12:59:13 2021, MaxMem=   104857600 cpu:               8.9 elap:               0.2
 (Enter /s/ls4/users/knvvv/bin/g16sse/l301.exe)
 General basis read from cards:  (5D, 7F)
 Centers:       2
 S 8 1.00
     Exponent=  1.1650646908D+05 Coefficients=  4.0383857939D-05
     Exponent=  1.7504349724D+04 Coefficients=  3.1255139004D-04
     Exponent=  3.9934513230D+03 Coefficients=  1.6341473495D-03
     Exponent=  1.1330063186D+03 Coefficients=  6.8283224757D-03
     Exponent=  3.6999569594D+02 Coefficients=  2.4124410221D-02
     Exponent=  1.3362074349D+02 Coefficients=  7.2730206154D-02
     Exponent=  5.2035643649D+01 Coefficients=  1.7934429892D-01
     Exponent=  2.1461939313D+01 Coefficients=  3.3059588895D-01
 S 2 1.00
     Exponent=  8.9835051252D+01 Coefficients=  9.6468652996D-02
     Exponent=  2.6428010844D+01 Coefficients=  9.4117481120D-01
 S 1 1.00
     Exponent=  9.2822824649D+00 Coefficients=  1.0000000000D+00
 S 1 1.00
     Exponent=  4.0947728533D+00 Coefficients=  1.0000000000D+00
 S 1 1.00
     Exponent=  1.3255349078D+00 Coefficients=  1.0000000000D+00
 S 1 1.00
     Exponent=  5.1877230787D-01 Coefficients=  1.0000000000D+00
 S 1 1.00
     Exponent=  1.9772676454D-01 Coefficients=  1.0000000000D+00
 S 1 1.00
     Exponent=  6.9638535104D-02 Coefficients=  1.0000000000D+00
 P 5 1.00
     Exponent=  1.9115255810D+02 Coefficients=  2.5115697705D-03
     Exponent=  4.5233356739D+01 Coefficients=  2.0039240864D-02
     Exponent=  1.4353465922D+01 Coefficients=  9.3609064762D-02
     Exponent=  5.2422371832D+00 Coefficients=  3.0618127124D-01
     Exponent=  2.0792418599D+00 Coefficients=  6.7810501439D-01
 P 1 1.00
     Exponent=  8.4282371424D-01 Coefficients=  1.0000000000D+00
 P 1 1.00
     Exponent=  3.3617694891D-01 Coefficients=  1.0000000000D+00
 P 1 1.00
     Exponent=  1.2863997974D-01 Coefficients=  1.0000000000D+00
 P 1 1.00
     Exponent=  4.3598162776D-02 Coefficients=  1.0000000000D+00
 D 1 1.00
     Exponent=  3.7750000000D+00 Coefficients=  1.0000000000D+00
 D 1 1.00
     Exponent=  1.3000000000D+00 Coefficients=  1.0000000000D+00
 D 1 1.00
     Exponent=  4.4400000000D-01 Coefficients=  1.0000000000D+00
 D 1 1.00
     Exponent=  1.2546378695D-01 Coefficients=  1.0000000000D+00
 F 1 1.00
     Exponent=  2.6660000000D+00 Coefficients=  1.0000000000D+00
 F 1 1.00
     Exponent=  8.5900000000D-01 Coefficients=  1.0000000000D+00
 G 1 1.00
     Exponent=  1.8460000000D+00 Coefficients=  1.0000000000D+00
 ****
 Centers:       1      3
 S 8 1.00
     Exponent=  1.3253597345D+05 Coefficients=  4.7387482743D-05
     Exponent=  1.9758112588D+04 Coefficients=  3.7070120897D-04
     Exponent=  4.4851996947D+03 Coefficients=  1.9450784713D-03
     Exponent=  1.2738151020D+03 Coefficients=  8.0573291994D-03
     Exponent=  4.1893831236D+02 Coefficients=  2.7992880781D-02
     Exponent=  1.5255721985D+02 Coefficients=  8.2735120175D-02
     Exponent=  5.9821524823D+01 Coefficients=  1.9854169012D-01
     Exponent=  2.4819076932D+01 Coefficients=  3.4860632233D-01
 S 2 1.00
     Exponent=  1.0074446673D+02 Coefficients=  1.0505068816D-01
     Exponent=  3.0103728290D+01 Coefficients=  9.4068472434D-01
 S 1 1.00
     Exponent=  1.0814283272D+01 Coefficients=  1.0000000000D+00
 S 1 1.00
     Exponent=  4.8172886770D+00 Coefficients=  1.0000000000D+00
 S 1 1.00
     Exponent=  1.6559334213D+00 Coefficients=  1.0000000000D+00
 S 1 1.00
     Exponent=  6.4893519582D-01 Coefficients=  1.0000000000D+00
 S 1 1.00
     Exponent=  2.4778104545D-01 Coefficients=  1.0000000000D+00
 S 1 1.00
     Exponent=  8.7626236800D-02 Coefficients=  1.0000000000D+00
 P 5 1.00
     Exponent=  2.4096654114D+02 Coefficients=  3.0389933451D-03
     Exponent=  5.7020699781D+01 Coefficients=  2.4357738582D-02
     Exponent=  1.8126952120D+01 Coefficients=  1.1442925768D-01
     Exponent=  6.6457404621D+00 Coefficients=  3.7064659853D-01
     Exponent=  2.6375722892D+00 Coefficients=  7.9791551766D-01
 P 1 1.00
     Exponent=  1.0638217200D+00 Coefficients=  1.0000000000D+00
 P 1 1.00
     Exponent=  4.1932562750D-01 Coefficients=  1.0000000000D+00
 P 1 1.00
     Exponent=  1.5747588299D-01 Coefficients=  1.0000000000D+00
 P 1 1.00
     Exponent=  4.6772400332D-02 Coefficients=  1.0000000000D+00
 D 1 1.00
     Exponent=  5.0140000000D+00 Coefficients=  1.0000000000D+00
 D 1 1.00
     Exponent=  1.7250000000D+00 Coefficients=  1.0000000000D+00
 D 1 1.00
     Exponent=  5.8600000000D-01 Coefficients=  1.0000000000D+00
 D 1 1.00
     Exponent=  1.5967986245D-01 Coefficients=  1.0000000000D+00
 F 1 1.00
     Exponent=  3.5620000000D+00 Coefficients=  1.0000000000D+00
 F 1 1.00
     Exponent=  1.1480000000D+00 Coefficients=  1.0000000000D+00
 G 1 1.00
     Exponent=  2.3760000000D+00 Coefficients=  1.0000000000D+00
 ****
 Ernie: Thresh=  0.10000D-02 Tol=  0.10000D-05 Strict=F.
 There are    92 symmetry adapted cartesian basis functions of A1  symmetry.
 There are    36 symmetry adapted cartesian basis functions of A2  symmetry.
 There are    45 symmetry adapted cartesian basis functions of B1  symmetry.
 There are    73 symmetry adapted cartesian basis functions of B2  symmetry.
 There are    71 symmetry adapted basis functions of A1  symmetry.
 There are    31 symmetry adapted basis functions of A2  symmetry.
 There are    38 symmetry adapted basis functions of B1  symmetry.
 There are    58 symmetry adapted basis functions of B2  symmetry.
   198 basis functions,   306 primitive gaussians,   246 cartesian basis functions
    13 alpha electrons       13 beta electrons
       nuclear repulsion energy        73.6829724568 Hartrees.
 IExCor= 4336 DFT=T Ex+Corr=M062X ExCW=0 ScaHFX=  0.540000
 ScaDFX=  1.000000  1.000000  1.000000  1.000000 ScalE2=  1.000000  1.000000
 IRadAn=      5 IRanWt=     -1 IRanGd=            0 ICorTp=0 IEmpDi=  4
 NAtoms=    3 NActive=    3 NUniq=    2 SFac= 2.25D+00 NAtFMM=   60 NAOKFM=F Big=F
 Integral buffers will be    131072 words long.
 Raffenetti 2 integral format.
 Two-electron integral symmetry is turned on.
 Leave Link  301 at Sat Apr 17 12:59:14 2021, MaxMem=   104857600 cpu:               7.0 elap:               0.2
 (Enter /s/ls4/users/knvvv/bin/g16sse/l302.exe)
 NPDir=0 NMtPBC=     1 NCelOv=     1 NCel=       1 NClECP=     1 NCelD=      1
         NCelK=      1 NCelE2=     1 NClLst=     1 CellRange=     0.0.
 One-electron integrals computed using PRISM.
 One-electron integral symmetry used in STVInt
 PrsmSu:  requested number of processors reduced to:   4 ShMem   1 Linda.
 PrsmSu:  requested number of processors reduced to:  21 ShMem   1 Linda.
 NBasis=   198 RedAO= T EigKep=  2.92D-04  NBF=    71    31    38    58
 NBsUse=   198 1.00D-06 EigRej= -1.00D+00 NBFU=    71    31    38    58
 Precomputing XC quadrature grid using
 IXCGrd= 4 IRadAn=           5 IRanWt=          -1 IRanGd=           0 AccXCQ= 0.00D+00.
 Generated NRdTot=       0 NPtTot=           0 NUsed=           0 NTot=          32
 NSgBfM=   245   244   244   245   245 MxSgAt=     3 MxSgA2=     3.
 Leave Link  302 at Sat Apr 17 12:59:23 2021, MaxMem=   104857600 cpu:             437.8 elap:               9.4
 (Enter /s/ls4/users/knvvv/bin/g16sse/l303.exe)
 DipDrv:  MaxL=1.
 Leave Link  303 at Sat Apr 17 12:59:24 2021, MaxMem=   104857600 cpu:              58.5 elap:               1.3
 (Enter /s/ls4/users/knvvv/bin/g16sse/l401.exe)
 SCF N**3 symmetry information disabled.
 ExpMin= 4.36D-02 ExpMax= 1.33D+05 ExpMxC= 1.27D+03 IAcc=3 IRadAn=         5 AccDes= 0.00D+00
 Harris functional with IExCor= 1009 and IRadAn=       5 diagonalized for initial guess.
 HarFok:  IExCor= 1009 AccDes= 0.00D+00 IRadAn=         5 IDoV= 1 UseB2=F ITyADJ=14
 ICtDFT=  3500011 ScaDFX=  1.000000  1.000000  1.000000  1.000000
 FoFCou: FMM=F IPFlag=           0 FMFlag=      100000 FMFlg1=           0
         NFxFlg=           0 DoJE=T BraDBF=F KetDBF=T FulRan=T
         wScrn=  0.000000 ICntrl=       500 IOpCl=  0 I1Cent=   200000004 NGrid=           0
         NMat0=    1 NMatS0=      1 NMatT0=    0 NMatD0=    1 NMtDS0=    0 NMtDT0=    0
 Petite list used in FoFCou.
 CoulSu:  requested number of processors reduced to:  21 ShMem   1 Linda.
 CoulSu:  requested number of processors reduced to:  21 ShMem   1 Linda.
 CoulSu:  requested number of processors reduced to:  21 ShMem   1 Linda.
 CoulSu:  requested number of processors reduced to:  21 ShMem   1 Linda.
 Harris En= -274.577676189651    
 JPrj=0 DoOrth=F DoCkMO=F.
 Initial guess orbital symmetries:
       Occupied  (B2) (A1) (A1) (A1) (B2) (A1) (B2) (A1) (B1) (A2)
                 (A1) (B2) (B1)
       Virtual   (A1) (B2) (A1) (B2) (A1) (B1) (B2) (A1) (A2) (B1)
                 (A1) (B2) (A1) (B2) (A1) (B1) (A2) (B1) (B2) (A1)
                 (A1) (B2) (B1) (A2) (A1) (B1) (B2) (A1) (A1) (B2)
                 (A2) (B2) (B1) (A2) (A1) (B2) (A1) (A1) (B2) (A1)
                 (B1) (A2) (A1) (A1) (B2) (B1) (B2) (B1) (A1) (A2)
                 (B2) (B2) (B1) (A2) (A1) (A1) (B2) (A1) (B2) (A2)
                 (B1) (B2) (A1) (A1) (B2) (B1) (A1) (B1) (A2) (B2)
                 (A1) (B2) (A1) (B1) (A1) (A2) (B1) (B2) (A2) (A1)
                 (B2) (A1) (A2) (A1) (B2) (A1) (B1) (B2) (B2) (B1)
                 (A1) (A2) (A1) (B1) (B2) (B1) (A1) (A2) (B2) (A1)
                 (B2) (A2) (B1) (B2) (A1) (A2) (B1) (A1) (B2) (A1)
                 (B2) (B2) (A1) (B1) (A1) (A2) (A1) (B2) (A2) (B1)
                 (B2) (A1) (B1) (A1) (B2) (B1) (A2) (A1) (B2) (A2)
                 (B1) (B2) (A1) (A2) (B1) (A1) (B2) (A2) (B2) (A1)
                 (B1) (A1) (B1) (A2) (B2) (A1) (B1) (A1) (A2) (B2)
                 (A1) (B2) (A1) (B1) (A1) (A2) (B2) (A2) (A1) (B2)
                 (B1) (A1) (B2) (B1) (A2) (A1) (B2) (A1) (B1) (B2)
                 (A2) (A2) (B1) (A1) (B2) (A1) (B2) (B2) (A1) (A1)
                 (A1) (B2) (A1) (A1) (B2)
 The electronic state of the initial guess is 1-A1.
 Leave Link  401 at Sat Apr 17 12:59:28 2021, MaxMem=   104857600 cpu:             167.5 elap:               3.8
 (Enter /s/ls4/users/knvvv/bin/g16sse/l502.exe)
 Integral symmetry usage will be decided dynamically.
 Closed shell SCF:
 Using DIIS extrapolation, IDIIS=  1040.
 NGot=   104857600 LenX=   104721261 LenY=   104660304
 Requested convergence on RMS density matrix=1.00D-08 within 128 cycles.
 Requested convergence on MAX density matrix=1.00D-06.
 Requested convergence on             energy=1.00D-06.
 No special actions if energy rises.
 Fock matrices will be formed incrementally for  20 cycles.

 Cycle   1  Pass 1  IDiag  1:
 FoFJK:  IHMeth= 1 ICntrl=       0 DoSepK=F KAlg= 0 I1Cent=           0 FoldK=F
 IRaf= 980000000 NMat=       1 IRICut=       1 DoRegI=T DoRafI=F ISym2E= 1 IDoP0=0 IntGTp=1.
 FoFCou: FMM=F IPFlag=           0 FMFlag=      100000 FMFlg1=           0
         NFxFlg=           0 DoJE=F BraDBF=F KetDBF=F FulRan=T
         wScrn=  0.000000 ICntrl=         0 IOpCl=  0 I1Cent=           0 NGrid=           0
         NMat0=    1 NMatS0=      1 NMatT0=    0 NMatD0=    1 NMtDS0=    0 NMtDT0=    0
 Petite list used in FoFCou.
 CoulSu:  requested number of processors reduced to:  21 ShMem   1 Linda.
 E= -274.650155223051    
 DIIS: error= 4.02D-02 at cycle   1 NSaved=   1.
 NSaved= 1 IEnMin= 1 EnMin= -274.650155223051     IErMin= 1 ErrMin= 4.02D-02
 ErrMax= 4.02D-02  0.00D+00 EMaxC= 1.00D-01 BMatC= 1.60D-01 BMatP= 1.60D-01
 IDIUse=3 WtCom= 5.98D-01 WtEn= 4.02D-01
 Coeff-Com:  0.100D+01
 Coeff-En:   0.100D+01
 Coeff:      0.100D+01
 Gap=     0.412 Goal=   None    Shift=    0.000
 GapD=    0.412 DampG=2.000 DampE=0.500 DampFc=1.0000 IDamp=-1.
 RMSDP=9.98D-04 MaxDP=2.53D-02              OVMax= 1.12D-01

 Cycle   2  Pass 1  IDiag  1:
 RMSU=  9.96D-04    CP:  1.01D+00
 CoulSu:  requested number of processors reduced to:  21 ShMem   1 Linda.
 E= -274.623228661758     Delta-E=        0.026926561294 Rises=F Damp=F
 DIIS: error= 3.07D-02 at cycle   2 NSaved=   2.
 NSaved= 2 IEnMin= 1 EnMin= -274.650155223051     IErMin= 2 ErrMin= 3.07D-02
 ErrMax= 3.07D-02  0.00D+00 EMaxC= 1.00D-01 BMatC= 1.20D-01 BMatP= 1.60D-01
 IDIUse=3 WtCom= 6.93D-01 WtEn= 3.07D-01
 Coeff-Com:  0.452D+00 0.548D+00
 Coeff-En:   0.619D+00 0.381D+00
 Coeff:      0.504D+00 0.496D+00
 Gap=     0.425 Goal=   None    Shift=    0.000
 RMSDP=7.10D-04 MaxDP=2.36D-02 DE= 2.69D-02 OVMax= 1.03D-01

 Cycle   3  Pass 1  IDiag  1:
 RMSU=  3.77D-04    CP:  1.01D+00  3.97D-01
 CoulSu:  requested number of processors reduced to:  21 ShMem   1 Linda.
 E= -274.684193699333     Delta-E=       -0.060965037575 Rises=F Damp=F
 DIIS: error= 1.08D-02 at cycle   3 NSaved=   3.
 NSaved= 3 IEnMin= 3 EnMin= -274.684193699333     IErMin= 3 ErrMin= 1.08D-02
 ErrMax= 1.08D-02  0.00D+00 EMaxC= 1.00D-01 BMatC= 1.73D-02 BMatP= 1.20D-01
 IDIUse=3 WtCom= 8.92D-01 WtEn= 1.08D-01
 Coeff-Com:  0.348D-01 0.273D+00 0.692D+00
 Coeff-En:   0.000D+00 0.137D+00 0.863D+00
 Coeff:      0.310D-01 0.258D+00 0.711D+00
 Gap=     0.412 Goal=   None    Shift=    0.000
 RMSDP=2.41D-04 MaxDP=7.12D-03 DE=-6.10D-02 OVMax= 2.98D-02

 Cycle   4  Pass 1  IDiag  1:
 RMSU=  1.14D-04    CP:  1.01D+00  5.77D-01  7.05D-01
 CoulSu:  requested number of processors reduced to:  21 ShMem   1 Linda.
 E= -274.694114147583     Delta-E=       -0.009920448251 Rises=F Damp=F
 DIIS: error= 1.87D-03 at cycle   4 NSaved=   4.
 NSaved= 4 IEnMin= 4 EnMin= -274.694114147583     IErMin= 4 ErrMin= 1.87D-03
 ErrMax= 1.87D-03  0.00D+00 EMaxC= 1.00D-01 BMatC= 7.21D-04 BMatP= 1.73D-02
 IDIUse=3 WtCom= 9.81D-01 WtEn= 1.87D-02
 Coeff-Com: -0.573D-02 0.648D-01 0.278D+00 0.663D+00
 Coeff-En:   0.000D+00 0.000D+00 0.000D+00 0.100D+01
 Coeff:     -0.562D-02 0.636D-01 0.273D+00 0.669D+00
 Gap=     0.409 Goal=   None    Shift=    0.000
 RMSDP=3.88D-05 MaxDP=1.12D-03 DE=-9.92D-03 OVMax= 4.27D-03

 Cycle   5  Pass 1  IDiag  1:
 RMSU=  2.67D-05    CP:  1.01D+00  5.67D-01  7.62D-01  8.75D-01
 CoulSu:  requested number of processors reduced to:  21 ShMem   1 Linda.
 E= -274.694478064554     Delta-E=       -0.000363916970 Rises=F Damp=F
 DIIS: error= 2.38D-04 at cycle   5 NSaved=   5.
 NSaved= 5 IEnMin= 5 EnMin= -274.694478064554     IErMin= 5 ErrMin= 2.38D-04
 ErrMax= 2.38D-04  0.00D+00 EMaxC= 1.00D-01 BMatC= 7.32D-06 BMatP= 7.21D-04
 IDIUse=3 WtCom= 9.98D-01 WtEn= 2.38D-03
 Coeff-Com: -0.256D-02 0.559D-02 0.421D-01 0.139D+00 0.816D+00
 Coeff-En:   0.000D+00 0.000D+00 0.000D+00 0.000D+00 0.100D+01
 Coeff:     -0.256D-02 0.558D-02 0.420D-01 0.138D+00 0.817D+00
 Gap=     0.409 Goal=   None    Shift=    0.000
 RMSDP=7.65D-06 MaxDP=2.39D-04 DE=-3.64D-04 OVMax= 8.60D-04

 Cycle   6  Pass 1  IDiag  1:
 RMSU=  5.27D-06    CP:  1.01D+00  5.67D-01  7.69D-01  9.18D-01  9.79D-01
 CoulSu:  requested number of processors reduced to:  21 ShMem   1 Linda.
 E= -274.694483968662     Delta-E=       -0.000005904108 Rises=F Damp=F
 DIIS: error= 5.43D-05 at cycle   6 NSaved=   6.
 NSaved= 6 IEnMin= 6 EnMin= -274.694483968662     IErMin= 6 ErrMin= 5.43D-05
 ErrMax= 5.43D-05  0.00D+00 EMaxC= 1.00D-01 BMatC= 4.13D-07 BMatP= 7.32D-06
 IDIUse=1 WtCom= 1.00D+00 WtEn= 0.00D+00
 Coeff-Com:  0.105D-03-0.414D-02-0.158D-01-0.425D-01 0.624D-01 0.100D+01
 Coeff:      0.105D-03-0.414D-02-0.158D-01-0.425D-01 0.624D-01 0.100D+01
 Gap=     0.409 Goal=   None    Shift=    0.000
 RMSDP=3.57D-06 MaxDP=1.28D-04 DE=-5.90D-06 OVMax= 5.63D-04

 Cycle   7  Pass 1  IDiag  1:
 RMSU=  1.79D-06    CP:  1.01D+00  5.68D-01  7.70D-01  9.32D-01  1.06D+00
                    CP:  1.24D+00
 CoulSu:  requested number of processors reduced to:  21 ShMem   1 Linda.
 E= -274.694484805945     Delta-E=       -0.000000837283 Rises=F Damp=F
 DIIS: error= 1.89D-05 at cycle   7 NSaved=   7.
 NSaved= 7 IEnMin= 7 EnMin= -274.694484805945     IErMin= 7 ErrMin= 1.89D-05
 ErrMax= 1.89D-05  0.00D+00 EMaxC= 1.00D-01 BMatC= 2.89D-08 BMatP= 4.13D-07
 IDIUse=1 WtCom= 1.00D+00 WtEn= 0.00D+00
 Coeff-Com:  0.108D-03 0.543D-03 0.176D-02 0.528D-03-0.567D-01-0.175D+00
 Coeff-Com:  0.123D+01
 Coeff:      0.108D-03 0.543D-03 0.176D-02 0.528D-03-0.567D-01-0.175D+00
 Coeff:      0.123D+01
 Gap=     0.409 Goal=   None    Shift=    0.000
 RMSDP=1.04D-06 MaxDP=3.60D-05 DE=-8.37D-07 OVMax= 1.81D-04

 Cycle   8  Pass 1  IDiag  1:
 RMSU=  2.76D-07    CP:  1.01D+00  5.68D-01  7.70D-01  9.35D-01  1.07D+00
                    CP:  1.37D+00  1.32D+00
 CoulSu:  requested number of processors reduced to:  21 ShMem   1 Linda.
 E= -274.694484867095     Delta-E=       -0.000000061150 Rises=F Damp=F
 DIIS: error= 2.60D-06 at cycle   8 NSaved=   8.
 NSaved= 8 IEnMin= 8 EnMin= -274.694484867095     IErMin= 8 ErrMin= 2.60D-06
 ErrMax= 2.60D-06  0.00D+00 EMaxC= 1.00D-01 BMatC= 6.44D-10 BMatP= 2.89D-08
 IDIUse=1 WtCom= 1.00D+00 WtEn= 0.00D+00
 Coeff-Com: -0.468D-05 0.130D-03 0.673D-03 0.156D-02-0.446D-02-0.404D-01
 Coeff-Com:  0.597D-01 0.983D+00
 Coeff:     -0.468D-05 0.130D-03 0.673D-03 0.156D-02-0.446D-02-0.404D-01
 Coeff:      0.597D-01 0.983D+00
 Gap=     0.409 Goal=   None    Shift=    0.000
 RMSDP=1.12D-07 MaxDP=4.31D-06 DE=-6.11D-08 OVMax= 1.98D-05

 Cycle   9  Pass 1  IDiag  1:
 RMSU=  4.60D-08    CP:  1.01D+00  5.68D-01  7.70D-01  9.36D-01  1.07D+00
                    CP:  1.38D+00  1.36D+00  1.17D+00
 CoulSu:  requested number of processors reduced to:  21 ShMem   1 Linda.
 E= -274.694484868006     Delta-E=       -0.000000000912 Rises=F Damp=F
 DIIS: error= 5.65D-07 at cycle   9 NSaved=   9.
 NSaved= 9 IEnMin= 9 EnMin= -274.694484868006     IErMin= 9 ErrMin= 5.65D-07
 ErrMax= 5.65D-07  0.00D+00 EMaxC= 1.00D-01 BMatC= 3.49D-11 BMatP= 6.44D-10
 IDIUse=1 WtCom= 1.00D+00 WtEn= 0.00D+00
 Coeff-Com: -0.567D-05-0.389D-04-0.104D-03-0.826D-04 0.298D-02 0.105D-01
 Coeff-Com: -0.591D-01-0.781D-01 0.112D+01
 Coeff:     -0.567D-05-0.389D-04-0.104D-03-0.826D-04 0.298D-02 0.105D-01
 Coeff:     -0.591D-01-0.781D-01 0.112D+01
 Gap=     0.409 Goal=   None    Shift=    0.000
 RMSDP=2.67D-08 MaxDP=7.14D-07 DE=-9.12D-10 OVMax= 3.30D-06

 Cycle  10  Pass 1  IDiag  1:
 RMSU=  1.06D-08    CP:  1.01D+00  5.68D-01  7.70D-01  9.36D-01  1.07D+00
                    CP:  1.38D+00  1.36D+00  1.22D+00  1.37D+00
 CoulSu:  requested number of processors reduced to:  21 ShMem   1 Linda.
 E= -274.694484868062     Delta-E=       -0.000000000056 Rises=F Damp=F
 DIIS: error= 8.40D-08 at cycle  10 NSaved=  10.
 NSaved=10 IEnMin=10 EnMin= -274.694484868062     IErMin=10 ErrMin= 8.40D-08
 ErrMax= 8.40D-08  0.00D+00 EMaxC= 1.00D-01 BMatC= 1.10D-12 BMatP= 3.49D-11
 IDIUse=1 WtCom= 1.00D+00 WtEn= 0.00D+00
 Coeff-Com:  0.446D-06-0.474D-05-0.282D-04-0.604D-04 0.212D-03 0.139D-02
 Coeff-Com: -0.367D-02-0.169D-01-0.319D-01 0.105D+01
 Coeff:      0.446D-06-0.474D-05-0.282D-04-0.604D-04 0.212D-03 0.139D-02
 Coeff:     -0.367D-02-0.169D-01-0.319D-01 0.105D+01
 Gap=     0.409 Goal=   None    Shift=    0.000
 RMSDP=6.21D-09 MaxDP=1.44D-07 DE=-5.62D-11 OVMax= 9.73D-07

 SCF Done:  E(RM062X) =  -274.694484868     A.U. after   10 cycles
            NFock= 10  Conv=0.62D-08     -V/T= 2.0032
 KE= 2.738303251509D+02 PE=-8.016422897650D+02 EE= 1.794345072894D+02
 Leave Link  502 at Sat Apr 17 13:00:01 2021, MaxMem=   104857600 cpu:            1349.3 elap:              32.3
 (Enter /s/ls4/users/knvvv/bin/g16sse/l601.exe)
 Copying SCF densities to generalized density rwf, IOpCl= 0 IROHF=0.

 **********************************************************************

            Population analysis using the SCF density.

 **********************************************************************

 Orbital symmetries:
       Occupied  (B2) (A1) (A1) (A1) (B2) (A1) (B2) (A1) (B1) (A2)
                 (B2) (A1) (B1)
       Virtual   (A1) (B2) (A1) (B2) (B1) (A1) (B2) (A1) (A2) (B1)
                 (A1) (B2) (B2) (A1) (A1) (B1) (A2) (B2) (B1) (A1)
                 (A1) (B1) (B2) (A2) (A1) (B1) (B2) (A1) (A1) (B2)
                 (A2) (B2) (B1) (A2) (A1) (A1) (B2) (A1) (B2) (A1)
                 (B1) (A2) (A1) (A1) (B2) (B2) (B1) (B1) (A1) (A2)
                 (B2) (B2) (A1) (B1) (A2) (A1) (B2) (A1) (B2) (A2)
                 (B1) (B2) (A1) (A1) (B2) (B1) (A1) (B1) (A2) (A1)
                 (B2) (B2) (A1) (B1) (A1) (A2) (B2) (A1) (B1) (A2)
                 (A1) (B2) (A2) (A1) (B2) (A1) (B1) (B2) (B2) (B1)
                 (A1) (A2) (A1) (B1) (B2) (A1) (B1) (A2) (B2) (A1)
                 (B2) (A2) (B1) (B2) (A1) (A2) (A1) (B1) (B2) (A1)
                 (B2) (B2) (A1) (B1) (A1) (A2) (B2) (A1) (A2) (B1)
                 (A1) (B2) (B1) (A1) (B2) (B1) (A2) (A1) (B2) (B2)
                 (A2) (B1) (A1) (A2) (B1) (B2) (A1) (A2) (B2) (A1)
                 (B1) (A1) (B2) (B1) (A2) (A1) (B1) (A1) (A2) (B2)
                 (A1) (B2) (A1) (B1) (A1) (A2) (B2) (A2) (A1) (B2)
                 (B1) (A1) (B1) (B2) (A2) (A1) (B2) (A1) (B1) (B2)
                 (A2) (A2) (B1) (A1) (B2) (A1) (B2) (B2) (A1) (A1)
                 (A1) (B2) (A1) (A1) (B2)
 The electronic state is 1-A1.
 Alpha  occ. eigenvalues --  -25.33764 -25.33763 -19.86708  -1.49783  -1.38556
 Alpha  occ. eigenvalues --   -1.08181  -0.70509  -0.67557  -0.66761  -0.57878
 Alpha  occ. eigenvalues --   -0.55092  -0.54700  -0.44588
 Alpha virt. eigenvalues --   -0.03677  -0.00849   0.04058   0.05421   0.05663
 Alpha virt. eigenvalues --    0.05672   0.09515   0.09805   0.10151   0.10612
 Alpha virt. eigenvalues --    0.13075   0.15044   0.25033   0.25109   0.36357
 Alpha virt. eigenvalues --    0.37693   0.39240   0.39545   0.40089   0.41607
 Alpha virt. eigenvalues --    0.43706   0.46932   0.47101   0.50036   0.50056
 Alpha virt. eigenvalues --    0.52357   0.53467   0.53538   0.58568   0.59307
 Alpha virt. eigenvalues --    0.61731   0.67362   0.71765   0.75476   0.77480
 Alpha virt. eigenvalues --    0.80572   0.80656   0.90159   0.94048   1.23763
 Alpha virt. eigenvalues --    1.24903   1.25279   1.28127   1.35929   1.40125
 Alpha virt. eigenvalues --    1.43541   1.44020   1.67237   1.70468   1.71498
 Alpha virt. eigenvalues --    1.72884   1.77347   1.78877   1.79442   1.80297
 Alpha virt. eigenvalues --    1.84904   1.87938   1.90940   1.99212   2.06874
 Alpha virt. eigenvalues --    2.15948   2.18223   2.35259   2.43214   2.57277
 Alpha virt. eigenvalues --    3.01298   3.20583   3.33789   3.34859   3.39127
 Alpha virt. eigenvalues --    3.39414   3.46042   3.55302   3.96505   3.96644
 Alpha virt. eigenvalues --    4.02126   4.11264   4.14244   4.15955   4.16537
 Alpha virt. eigenvalues --    4.17428   4.18268   4.21930   4.33693   4.36599
 Alpha virt. eigenvalues --    4.41853   4.59520   4.61043   4.69085   4.77650
 Alpha virt. eigenvalues --    4.86677   5.04138   5.09125   5.10009   5.19870
 Alpha virt. eigenvalues --    5.22598   5.23620   5.25841   5.32409   5.50225
 Alpha virt. eigenvalues --    5.54419   5.59418   5.62107   5.64757   5.73591
 Alpha virt. eigenvalues --    6.39865   6.40875   6.41650   6.51422   6.58620
 Alpha virt. eigenvalues --    6.89300   6.96452   6.98451   8.67550   8.69132
 Alpha virt. eigenvalues --    8.70074   8.85953   8.87568   8.88877   8.95698
 Alpha virt. eigenvalues --    9.30977   9.31735  10.69943  10.81848  10.93512
 Alpha virt. eigenvalues --   10.95565  10.98392  11.22547  11.25861  11.26709
 Alpha virt. eigenvalues --   11.27571  11.28674  11.28987  11.29528  11.29542
 Alpha virt. eigenvalues --   11.29550  11.29626  11.36748  11.41249  11.47991
 Alpha virt. eigenvalues --   11.51921  11.59190  11.67207  11.69415  11.70401
 Alpha virt. eigenvalues --   11.77984  12.24094  12.30252  12.33227  12.47912
 Alpha virt. eigenvalues --   12.62836  12.97984  13.50778  14.38124  14.38720
 Alpha virt. eigenvalues --   14.38839  14.39109  14.45783  14.51492  14.51602
 Alpha virt. eigenvalues --   14.55522  14.89464  15.05564  15.08312  15.10441
 Alpha virt. eigenvalues --   15.14359  15.15724  15.76855  15.78154  15.80995
 Alpha virt. eigenvalues --   15.81289  15.91157  15.94803  15.94983  16.03398
 Alpha virt. eigenvalues --   16.19167  16.27323  16.42360  16.52446  47.63124
 Alpha virt. eigenvalues --   54.35158  54.63321 250.62797 283.21788 283.59693
          Condensed to atoms (all electrons):
               1          2          3
     1  F    9.086168   0.015040  -0.006933
     2  O    0.015040   7.781368   0.015040
     3  F   -0.006933   0.015040   9.086168
 Mulliken charges:
               1
     1  F   -0.094276
     2  O    0.188551
     3  F   -0.094276
 Sum of Mulliken charges =  -0.00000
 Mulliken charges with hydrogens summed into heavy atoms:
               1
     1  F   -0.094276
     2  O    0.188551
     3  F   -0.094276
 Electronic spatial extent (au):  <R**2>=            125.9130
 Charge=             -0.0000 electrons
 Dipole moment (field-independent basis, Debye):
    X=              0.0000    Y=              0.0000    Z=              0.3469  Tot=              0.3469
 Quadrupole moment (field-independent basis, Debye-Ang):
   XX=            -14.9817   YY=            -14.8640   ZZ=            -14.4274
   XY=             -0.0000   XZ=             -0.0000   YZ=             -0.0000
 Traceless Quadrupole moment (field-independent basis, Debye-Ang):
   XX=             -0.2240   YY=             -0.1063   ZZ=              0.3303
   XY=             -0.0000   XZ=             -0.0000   YZ=             -0.0000
 Octapole moment (field-independent basis, Debye-Ang**2):
  XXX=              0.0000  YYY=              0.0000  ZZZ=             -1.1331  XYY=              0.0000
  XXY=              0.0000  XXZ=             -0.6103  XZZ=              0.0000  YZZ=              0.0000
  YYZ=             -0.7159  XYZ=              0.0000
 Hexadecapole moment (field-independent basis, Debye-Ang**3):
 XXXX=             -9.8492 YYYY=            -77.2612 ZZZZ=            -24.0905 XXXY=             -0.0000
 XXXZ=             -0.0000 YYYX=             -0.0000 YYYZ=             -0.0000 ZZZX=             -0.0000
 ZZZY=              0.0000 XXYY=            -15.1161 XXZZ=             -6.0347 YYZZ=            -15.9989
 XXYZ=             -0.0000 YYXZ=             -0.0000 ZZXY=             -0.0000
 N-N= 7.368297245676D+01 E-N=-8.016422904925D+02  KE= 2.738303251509D+02
 PrsmSu:  requested number of processors reduced to:  21 ShMem   1 Linda.
 No NMR shielding tensors so no spin-rotation constants.
 Leave Link  601 at Sat Apr 17 13:00:05 2021, MaxMem=   104857600 cpu:             209.6 elap:               4.6
 (Enter /s/ls4/users/knvvv/bin/g16sse/l801.exe)
 DoSCS=F DFT=T ScalE2(SS,OS)=  1.000000  1.000000
 Range of M.O.s used for correlation:     1   198
 NBasis=   198 NAE=    13 NBE=    13 NFC=     0 NFV=     0
 NROrb=    198 NOA=    13 NOB=    13 NVA=   185 NVB=   185

 **** Warning!!: The largest alpha MO coefficient is  0.18628061D+02

 Leave Link  801 at Sat Apr 17 13:00:06 2021, MaxMem=   104857600 cpu:               6.7 elap:               0.3
 (Enter /s/ls4/users/knvvv/bin/g16sse/l914.exe)
 RHF ground state
 Doing stability rather than CIS.
 Two-electron integrals replicated using symmetry.
 MDV=   104857600 DFT=T DoStab=T Mixed=T DoRPA=F DoScal=F NonHer=F
 Making orbital integer symmetry assigments:
 Orbital symmetries:
       Occupied  (B2) (A1) (A1) (A1) (B2) (A1) (B2) (A1) (B1) (A2)
                 (B2) (A1) (B1)
       Virtual   (A1) (B2) (A1) (B2) (B1) (A1) (B2) (A1) (A2) (B1)
                 (A1) (B2) (B2) (A1) (A1) (B1) (A2) (B2) (B1) (A1)
                 (A1) (B1) (B2) (A2) (A1) (B1) (B2) (A1) (A1) (B2)
                 (A2) (B2) (B1) (A2) (A1) (A1) (B2) (A1) (B2) (A1)
                 (B1) (A2) (A1) (A1) (B2) (B2) (B1) (B1) (A1) (A2)
                 (B2) (B2) (A1) (B1) (A2) (A1) (B2) (A1) (B2) (A2)
                 (B1) (B2) (A1) (A1) (B2) (B1) (A1) (B1) (A2) (A1)
                 (B2) (B2) (A1) (B1) (A1) (A2) (B2) (A1) (B1) (A2)
                 (A1) (B2) (A2) (A1) (B2) (A1) (B1) (B2) (B2) (B1)
                 (A1) (A2) (A1) (B1) (B2) (A1) (B1) (A2) (B2) (A1)
                 (B2) (A2) (B1) (B2) (A1) (A2) (A1) (B1) (B2) (A1)
                 (B2) (B2) (A1) (B1) (A1) (A2) (B2) (A1) (A2) (B1)
                 (A1) (B2) (B1) (A1) (B2) (B1) (A2) (A1) (B2) (B2)
                 (A2) (B1) (A1) (A2) (B1) (B2) (A1) (A2) (B2) (A1)
                 (B1) (A1) (B2) (B1) (A2) (A1) (B1) (A1) (A2) (B2)
                 (A1) (B2) (A1) (B1) (A1) (A2) (B2) (A2) (A1) (B2)
                 (B1) (A1) (B1) (B2) (A2) (A1) (B2) (A1) (B1) (B2)
                 (A2) (A2) (B1) (A1) (B2) (A1) (B2) (B2) (A1) (A1)
                 (A1) (B2) (A1) (A1) (B2)
    24 initial guesses have been made.
 Convergence on wavefunction:    0.001000000000000
 Davidson Disk Diagonalization:  ConvIn= 1.00D-03 SkipCon=T Conv= 1.00D-03.
 Max sub-space:  2000 roots to seek:    24 dimension of matrix:         4810
 Iteration     1 Dimension    24 NMult     0 NNew     24
 Estimated number of processors is:   19
 CISAX will form     1 AO SS matrices at one time.
 NMat=     1 NSing=     1 JSym2X= 2.
 FoFJK:  IHMeth= 1 ICntrl=       0 DoSepK=F KAlg= 0 I1Cent=           0 FoldK=F
 IRaf= 980000000 NMat=       1 IRICut=       1 DoRegI=T DoRafI=F ISym2E= 2 IDoP0=0 IntGTp=1.
 FoFCou: FMM=F IPFlag=           0 FMFlag=      100000 FMFlg1=           0
         NFxFlg=           0 DoJE=F BraDBF=F KetDBF=F FulRan=T
         wScrn=  0.000000 ICntrl=         0 IOpCl=  0 I1Cent=           0 NGrid=           0
         NMat0=    1 NMatS0=      1 NMatT0=    0 NMatD0=    1 NMtDS0=    0 NMtDT0=    0
 Integrals replicated using symmetry in FoFCou.
 CoulSu:  requested number of processors reduced to:  20 ShMem   1 Linda.
 NMat=     1 NSing=     1 JSym2X= 2.
 CoulSu:  requested number of processors reduced to:  20 ShMem   1 Linda.
 NMat=     1 NSing=     1 JSym2X= 2.
 CoulSu:  requested number of processors reduced to:  20 ShMem   1 Linda.
 NMat=     1 NSing=     1 JSym2X= 2.
 CoulSu:  requested number of processors reduced to:  20 ShMem   1 Linda.
 NMat=     1 NSing=     1 JSym2X= 2.
 CoulSu:  requested number of processors reduced to:  20 ShMem   1 Linda.
 NMat=     1 NSing=     1 JSym2X= 2.
 CoulSu:  requested number of processors reduced to:  20 ShMem   1 Linda.
 NMat=     1 NSing=     1 JSym2X= 2.
 CoulSu:  requested number of processors reduced to:  20 ShMem   1 Linda.
 NMat=     1 NSing=     1 JSym2X= 2.
 CoulSu:  requested number of processors reduced to:  20 ShMem   1 Linda.
 NMat=     1 NSing=     1 JSym2X= 2.
 CoulSu:  requested number of processors reduced to:  20 ShMem   1 Linda.
 NMat=     1 NSing=     1 JSym2X= 2.
 CoulSu:  requested number of processors reduced to:  20 ShMem   1 Linda.
 NMat=     1 NSing=     1 JSym2X= 2.
 CoulSu:  requested number of processors reduced to:  20 ShMem   1 Linda.
 NMat=     1 NSing=     1 JSym2X= 2.
 CoulSu:  requested number of processors reduced to:  20 ShMem   1 Linda.
 NMat=     1 NSing=     0 JSym2X= 2.
 CoulSu:  requested number of processors reduced to:  20 ShMem   1 Linda.
 NMat=     1 NSing=     0 JSym2X= 2.
 CoulSu:  requested number of processors reduced to:  20 ShMem   1 Linda.
 NMat=     1 NSing=     0 JSym2X= 2.
 CoulSu:  requested number of processors reduced to:  20 ShMem   1 Linda.
 NMat=     1 NSing=     0 JSym2X= 2.
 CoulSu:  requested number of processors reduced to:  20 ShMem   1 Linda.
 NMat=     1 NSing=     0 JSym2X= 2.
 CoulSu:  requested number of processors reduced to:  20 ShMem   1 Linda.
 NMat=     1 NSing=     0 JSym2X= 2.
 CoulSu:  requested number of processors reduced to:  20 ShMem   1 Linda.
 NMat=     1 NSing=     0 JSym2X= 2.
 CoulSu:  requested number of processors reduced to:  20 ShMem   1 Linda.
 NMat=     1 NSing=     0 JSym2X= 2.
 CoulSu:  requested number of processors reduced to:  20 ShMem   1 Linda.
 NMat=     1 NSing=     0 JSym2X= 2.
 CoulSu:  requested number of processors reduced to:  20 ShMem   1 Linda.
 NMat=     1 NSing=     0 JSym2X= 2.
 CoulSu:  requested number of processors reduced to:  20 ShMem   1 Linda.
 NMat=     1 NSing=     0 JSym2X= 2.
 CoulSu:  requested number of processors reduced to:  20 ShMem   1 Linda.
 NMat=     1 NSing=     0 JSym2X= 2.
 CoulSu:  requested number of processors reduced to:  20 ShMem   1 Linda.
 New state      1 was old state      2
 Excitation Energies [eV] at current iteration:
 Root      1 :     3.615479441670899
 Root      2 :     4.181347181287888
 Root      3 :     6.050851860924800
 Root      4 :     6.190990850542894
 Root      5 :     6.807372752558028
 Root      6 :     7.006935078123392
 Root      7 :     8.419917986947079
 Root      8 :     8.780101000313341
 Root      9 :     8.795140130337760
 Root     10 :     9.257238628773523
 Root     11 :     9.668657178407283
 Root     12 :    10.112055794341810
 Root     13 :    10.701227994512450
 Root     14 :    10.719216228148670
 Root     15 :    10.773788116176930
 Root     16 :    11.032201371399440
 Root     17 :    11.043485116779600
 Root     18 :    11.093668320118840
 Root     19 :    11.138439927456350
 Root     20 :    11.181621096675300
 Root     21 :    12.179533236890020
 Root     22 :    12.387610556441230
 Root     23 :    12.449750432398520
 Root     24 :    17.250193262882610
 Iteration     2 Dimension    48 NMult    24 NNew     24
 Estimated number of processors is:   19
 CISAX will form     1 AO SS matrices at one time.
 NMat=     1 NSing=     1 JSym2X= 2.
 CoulSu:  requested number of processors reduced to:  20 ShMem   1 Linda.
 NMat=     1 NSing=     1 JSym2X= 2.
 CoulSu:  requested number of processors reduced to:  20 ShMem   1 Linda.
 NMat=     1 NSing=     1 JSym2X= 2.
 CoulSu:  requested number of processors reduced to:  20 ShMem   1 Linda.
 NMat=     1 NSing=     1 JSym2X= 2.
 CoulSu:  requested number of processors reduced to:  20 ShMem   1 Linda.
 NMat=     1 NSing=     1 JSym2X= 2.
 CoulSu:  requested number of processors reduced to:  20 ShMem   1 Linda.
 NMat=     1 NSing=     1 JSym2X= 2.
 CoulSu:  requested number of processors reduced to:  20 ShMem   1 Linda.
 NMat=     1 NSing=     1 JSym2X= 2.
 CoulSu:  requested number of processors reduced to:  20 ShMem   1 Linda.
 NMat=     1 NSing=     1 JSym2X= 2.
 CoulSu:  requested number of processors reduced to:  20 ShMem   1 Linda.
 NMat=     1 NSing=     1 JSym2X= 2.
 CoulSu:  requested number of processors reduced to:  20 ShMem   1 Linda.
 NMat=     1 NSing=     1 JSym2X= 2.
 CoulSu:  requested number of processors reduced to:  20 ShMem   1 Linda.
 NMat=     1 NSing=     1 JSym2X= 2.
 CoulSu:  requested number of processors reduced to:  20 ShMem   1 Linda.
 NMat=     1 NSing=     1 JSym2X= 2.
 CoulSu:  requested number of processors reduced to:  20 ShMem   1 Linda.
 NMat=     1 NSing=     0 JSym2X= 2.
 CoulSu:  requested number of processors reduced to:  20 ShMem   1 Linda.
 NMat=     1 NSing=     0 JSym2X= 2.
 CoulSu:  requested number of processors reduced to:  20 ShMem   1 Linda.
 NMat=     1 NSing=     0 JSym2X= 2.
 CoulSu:  requested number of processors reduced to:  20 ShMem   1 Linda.
 NMat=     1 NSing=     0 JSym2X= 2.
 CoulSu:  requested number of processors reduced to:  20 ShMem   1 Linda.
 NMat=     1 NSing=     0 JSym2X= 2.
 CoulSu:  requested number of processors reduced to:  20 ShMem   1 Linda.
 NMat=     1 NSing=     0 JSym2X= 2.
 CoulSu:  requested number of processors reduced to:  20 ShMem   1 Linda.
 NMat=     1 NSing=     0 JSym2X= 2.
 CoulSu:  requested number of processors reduced to:  20 ShMem   1 Linda.
 NMat=     1 NSing=     0 JSym2X= 2.
 CoulSu:  requested number of processors reduced to:  20 ShMem   1 Linda.
 NMat=     1 NSing=     0 JSym2X= 2.
 CoulSu:  requested number of processors reduced to:  20 ShMem   1 Linda.
 NMat=     1 NSing=     0 JSym2X= 2.
 CoulSu:  requested number of processors reduced to:  20 ShMem   1 Linda.
 NMat=     1 NSing=     0 JSym2X= 2.
 CoulSu:  requested number of processors reduced to:  20 ShMem   1 Linda.
 NMat=     1 NSing=     0 JSym2X= 2.
 CoulSu:  requested number of processors reduced to:  20 ShMem   1 Linda.
 Root      1 not converged, maximum delta is    0.086560911405553
 Excitation Energies [eV] at current iteration:
 Root      1 :     2.891968378920045   Change is   -0.723511062750854
 Root      2 :     3.612835008945435   Change is   -0.568512172342453
 Root      3 :     5.160548910145452   Change is   -1.846386167977940
 Root      4 :     5.472967284139401   Change is   -0.577884576785398
 Root      5 :     5.680573004981881   Change is   -1.126799747576147
 Root      6 :     5.810659185203650   Change is   -0.380331665339244
 Root      7 :     5.992050607531773   Change is   -2.427867379415305
 Root      8 :     7.399951606547043   Change is   -1.857287022226481
 Root      9 :     7.515061192141345   Change is   -1.280078938196415
 Root     10 :     8.061431157770965   Change is   -0.718669842542376
 Root     11 :     8.982292380660333   Change is   -1.129763413681478
 Root     12 :     9.145372498353089   Change is   -0.523284680054194
 Root     13 :     9.862093393300189   Change is   -0.857122834848482
 Root     14 :    10.382924343947760   Change is   -0.318303650564688
 Root     15 :    10.510590098464120   Change is   -0.263198017712809
 Root     16 :    10.842997597035300   Change is   -0.200487519744302
 Root     17 :    10.892406229757370   Change is   -0.139795141642073
 Root     18 :    10.902889461561090   Change is   -0.190778858557748
 Root     19 :    11.020117932365350   Change is   -0.118321995091005
 Root     20 :    11.040093125917310   Change is   -0.141527970757987
 Root     21 :    11.153863015591080   Change is   -1.025670221298942
 Root     22 :    12.276028229386260   Change is   -0.111582327054978
 Root     23 :    12.358863493721190   Change is   -0.090886938677330
 Root     24 :    13.778349271070100   Change is   -3.471843991812513
 Iteration     3 Dimension    54 NMult    48 NNew      6
 Estimated number of processors is:   19
 CISAX will form     1 AO SS matrices at one time.
 NMat=     1 NSing=     1 JSym2X= 2.
 CoulSu:  requested number of processors reduced to:  20 ShMem   1 Linda.
 NMat=     1 NSing=     1 JSym2X= 2.
 CoulSu:  requested number of processors reduced to:  20 ShMem   1 Linda.
 NMat=     1 NSing=     1 JSym2X= 2.
 CoulSu:  requested number of processors reduced to:  20 ShMem   1 Linda.
 NMat=     1 NSing=     0 JSym2X= 2.
 CoulSu:  requested number of processors reduced to:  20 ShMem   1 Linda.
 NMat=     1 NSing=     0 JSym2X= 2.
 CoulSu:  requested number of processors reduced to:  20 ShMem   1 Linda.
 NMat=     1 NSing=     0 JSym2X= 2.
 CoulSu:  requested number of processors reduced to:  20 ShMem   1 Linda.
 Root      1 not converged, maximum delta is    0.020332175873678
 Excitation Energies [eV] at current iteration:
 Root      1 :     2.874044540158770   Change is   -0.017923838761275
 Root      2 :     3.606061256893502   Change is   -0.006773752051933
 Root      3 :     4.787675226186143   Change is   -0.372873683959309
 Root      4 :     5.416747779027236   Change is   -0.056219505112166
 Root      5 :     5.796472063267177   Change is   -0.014187121936473
 Root      6 :     7.953895059272499   Change is   -0.107536098498465
 Iteration     4 Dimension    60 NMult    54 NNew      6
 Estimated number of processors is:   19
 CISAX will form     1 AO SS matrices at one time.
 NMat=     1 NSing=     1 JSym2X= 2.
 CoulSu:  requested number of processors reduced to:  20 ShMem   1 Linda.
 NMat=     1 NSing=     1 JSym2X= 2.
 CoulSu:  requested number of processors reduced to:  20 ShMem   1 Linda.
 NMat=     1 NSing=     1 JSym2X= 2.
 CoulSu:  requested number of processors reduced to:  20 ShMem   1 Linda.
 NMat=     1 NSing=     0 JSym2X= 2.
 CoulSu:  requested number of processors reduced to:  20 ShMem   1 Linda.
 NMat=     1 NSing=     0 JSym2X= 2.
 CoulSu:  requested number of processors reduced to:  20 ShMem   1 Linda.
 NMat=     1 NSing=     0 JSym2X= 2.
 CoulSu:  requested number of processors reduced to:  20 ShMem   1 Linda.
 Root      1 not converged, maximum delta is    0.005834016556305
 Excitation Energies [eV] at current iteration:
 Root      1 :     2.872671770668671   Change is   -0.001372769490099
 Root      2 :     3.605960535160080   Change is   -0.000100721733422
 Root      3 :     4.776192645416239   Change is   -0.011482580769905
 Root      4 :     5.411322656977593   Change is   -0.005425122049644
 Root      5 :     5.795949661975968   Change is   -0.000522401291210
 Root      6 :     7.936382720650053   Change is   -0.017512338622446
 Iteration     5 Dimension    66 NMult    60 NNew      6
 Estimated number of processors is:   19
 CISAX will form     1 AO SS matrices at one time.
 NMat=     1 NSing=     1 JSym2X= 2.
 CoulSu:  requested number of processors reduced to:  20 ShMem   1 Linda.
 NMat=     1 NSing=     1 JSym2X= 2.
 CoulSu:  requested number of processors reduced to:  20 ShMem   1 Linda.
 NMat=     1 NSing=     1 JSym2X= 2.
 CoulSu:  requested number of processors reduced to:  20 ShMem   1 Linda.
 NMat=     1 NSing=     0 JSym2X= 2.
 CoulSu:  requested number of processors reduced to:  20 ShMem   1 Linda.
 NMat=     1 NSing=     0 JSym2X= 2.
 CoulSu:  requested number of processors reduced to:  20 ShMem   1 Linda.
 NMat=     1 NSing=     0 JSym2X= 2.
 CoulSu:  requested number of processors reduced to:  20 ShMem   1 Linda.
 Root      1 not converged, maximum delta is    0.002598185275441
 Excitation Energies [eV] at current iteration:
 Root      1 :     2.872472365342916   Change is   -0.000199405325755
 Root      2 :     3.605958220759902   Change is   -0.000002314400178
 Root      3 :     4.775775914282744   Change is   -0.000416731133495
 Root      4 :     5.410723605493569   Change is   -0.000599051484023
 Root      5 :     5.795930874031431   Change is   -0.000018787944535
 Root      6 :     7.935405089460573   Change is   -0.000977631189480
 Iteration     6 Dimension    72 NMult    66 NNew      6
 Estimated number of processors is:   19
 CISAX will form     1 AO SS matrices at one time.
 NMat=     1 NSing=     1 JSym2X= 2.
 CoulSu:  requested number of processors reduced to:  20 ShMem   1 Linda.
 NMat=     1 NSing=     1 JSym2X= 2.
 CoulSu:  requested number of processors reduced to:  20 ShMem   1 Linda.
 NMat=     1 NSing=     1 JSym2X= 2.
 CoulSu:  requested number of processors reduced to:  20 ShMem   1 Linda.
 NMat=     1 NSing=     0 JSym2X= 2.
 CoulSu:  requested number of processors reduced to:  20 ShMem   1 Linda.
 NMat=     1 NSing=     0 JSym2X= 2.
 CoulSu:  requested number of processors reduced to:  20 ShMem   1 Linda.
 NMat=     1 NSing=     0 JSym2X= 2.
 CoulSu:  requested number of processors reduced to:  20 ShMem   1 Linda.
 Root      1 has converged.
 Excitation Energies [eV] at current iteration:
 Root      1 :     2.872464810512640   Change is   -0.000007554830276
 Root      2 :     3.605958179849959   Change is   -0.000000040909943
 Root      3 :     4.775768646621773   Change is   -0.000007267660970
 Root      4 :     5.410684881304275   Change is   -0.000038724189295
 Root      5 :     5.795930517538289   Change is   -0.000000356493143
 Root      6 :     7.935310959913044   Change is   -0.000094129547529
 Convergence achieved on expansion vectors.
 ***********************************************************************
 Stability analysis using <AA,BB:AA,BB> singles matrix:
 ***********************************************************************
 1PDM for each excited state written to RWF  633
 Ground to excited state transition densities written to RWF  633

 Eigenvectors of the stability matrix:
 
 Eigenvector   1:      Triplet-B1   Eigenvalue= 0.1055611  <S**2>=2.000
      10 -> 15         0.11357
      13 -> 14         0.67005
      13 -> 19         0.11738
 The wavefunction is stable under the perturbations considered.
 Leave Link  914 at Sat Apr 17 13:02:41 2021, MaxMem=   104857600 cpu:            5887.9 elap:             155.6
 (Enter /s/ls4/users/knvvv/bin/g16sse/l508.exe)
 The wavefunction is already stable.
 Leave Link  508 at Sat Apr 17 13:02:41 2021, MaxMem=   104857600 cpu:               2.2 elap:               0.1
 (Enter /s/ls4/users/knvvv/bin/g16sse/l601.exe)
 Copying SCF densities to generalized density rwf, IOpCl= 0 IROHF=0.

 **********************************************************************

            Population analysis using the SCF density.

 **********************************************************************

 Orbital symmetries:
       Occupied  (B2) (A1) (A1) (A1) (B2) (A1) (B2) (A1) (B1) (A2)
                 (B2) (A1) (B1)
       Virtual   (A1) (B2) (A1) (B2) (B1) (A1) (B2) (A1) (A2) (B1)
                 (A1) (B2) (B2) (A1) (A1) (B1) (A2) (B2) (B1) (A1)
                 (A1) (B1) (B2) (A2) (A1) (B1) (B2) (A1) (A1) (B2)
                 (A2) (B2) (B1) (A2) (A1) (A1) (B2) (A1) (B2) (A1)
                 (B1) (A2) (A1) (A1) (B2) (B2) (B1) (B1) (A1) (A2)
                 (B2) (B2) (A1) (B1) (A2) (A1) (B2) (A1) (B2) (A2)
                 (B1) (B2) (A1) (A1) (B2) (B1) (A1) (B1) (A2) (A1)
                 (B2) (B2) (A1) (B1) (A1) (A2) (B2) (A1) (B1) (A2)
                 (A1) (B2) (A2) (A1) (B2) (A1) (B1) (B2) (B2) (B1)
                 (A1) (A2) (A1) (B1) (B2) (A1) (B1) (A2) (B2) (A1)
                 (B2) (A2) (B1) (B2) (A1) (A2) (A1) (B1) (B2) (A1)
                 (B2) (B2) (A1) (B1) (A1) (A2) (B2) (A1) (A2) (B1)
                 (A1) (B2) (B1) (A1) (B2) (B1) (A2) (A1) (B2) (B2)
                 (A2) (B1) (A1) (A2) (B1) (B2) (A1) (A2) (B2) (A1)
                 (B1) (A1) (B2) (B1) (A2) (A1) (B1) (A1) (A2) (B2)
                 (A1) (B2) (A1) (B1) (A1) (A2) (B2) (A2) (A1) (B2)
                 (B1) (A1) (B1) (B2) (A2) (A1) (B2) (A1) (B1) (B2)
                 (A2) (A2) (B1) (A1) (B2) (A1) (B2) (B2) (A1) (A1)
                 (A1) (B2) (A1) (A1) (B2)
 The electronic state is 1-A1.
 Alpha  occ. eigenvalues --  -25.33764 -25.33763 -19.86708  -1.49783  -1.38556
 Alpha  occ. eigenvalues --   -1.08181  -0.70509  -0.67557  -0.66761  -0.57878
 Alpha  occ. eigenvalues --   -0.55092  -0.54700  -0.44588
 Alpha virt. eigenvalues --   -0.03677  -0.00849   0.04058   0.05421   0.05663
 Alpha virt. eigenvalues --    0.05672   0.09515   0.09805   0.10151   0.10612
 Alpha virt. eigenvalues --    0.13075   0.15044   0.25033   0.25109   0.36357
 Alpha virt. eigenvalues --    0.37693   0.39240   0.39545   0.40089   0.41607
 Alpha virt. eigenvalues --    0.43706   0.46932   0.47101   0.50036   0.50056
 Alpha virt. eigenvalues --    0.52357   0.53467   0.53538   0.58568   0.59307
 Alpha virt. eigenvalues --    0.61731   0.67362   0.71765   0.75476   0.77480
 Alpha virt. eigenvalues --    0.80572   0.80656   0.90159   0.94048   1.23763
 Alpha virt. eigenvalues --    1.24903   1.25279   1.28127   1.35929   1.40125
 Alpha virt. eigenvalues --    1.43541   1.44020   1.67237   1.70468   1.71498
 Alpha virt. eigenvalues --    1.72884   1.77347   1.78877   1.79442   1.80297
 Alpha virt. eigenvalues --    1.84904   1.87938   1.90940   1.99212   2.06874
 Alpha virt. eigenvalues --    2.15948   2.18223   2.35259   2.43214   2.57277
 Alpha virt. eigenvalues --    3.01298   3.20583   3.33789   3.34859   3.39127
 Alpha virt. eigenvalues --    3.39414   3.46042   3.55302   3.96505   3.96644
 Alpha virt. eigenvalues --    4.02126   4.11264   4.14244   4.15955   4.16537
 Alpha virt. eigenvalues --    4.17428   4.18268   4.21930   4.33693   4.36599
 Alpha virt. eigenvalues --    4.41853   4.59520   4.61043   4.69085   4.77650
 Alpha virt. eigenvalues --    4.86677   5.04138   5.09125   5.10009   5.19870
 Alpha virt. eigenvalues --    5.22598   5.23620   5.25841   5.32409   5.50225
 Alpha virt. eigenvalues --    5.54419   5.59418   5.62107   5.64757   5.73591
 Alpha virt. eigenvalues --    6.39865   6.40875   6.41650   6.51422   6.58620
 Alpha virt. eigenvalues --    6.89300   6.96452   6.98451   8.67550   8.69132
 Alpha virt. eigenvalues --    8.70074   8.85953   8.87568   8.88877   8.95698
 Alpha virt. eigenvalues --    9.30977   9.31735  10.69943  10.81848  10.93512
 Alpha virt. eigenvalues --   10.95565  10.98392  11.22547  11.25861  11.26709
 Alpha virt. eigenvalues --   11.27571  11.28674  11.28987  11.29528  11.29542
 Alpha virt. eigenvalues --   11.29550  11.29626  11.36748  11.41249  11.47991
 Alpha virt. eigenvalues --   11.51921  11.59190  11.67207  11.69415  11.70401
 Alpha virt. eigenvalues --   11.77984  12.24094  12.30252  12.33227  12.47912
 Alpha virt. eigenvalues --   12.62836  12.97984  13.50778  14.38124  14.38720
 Alpha virt. eigenvalues --   14.38839  14.39109  14.45783  14.51492  14.51602
 Alpha virt. eigenvalues --   14.55522  14.89464  15.05564  15.08312  15.10441
 Alpha virt. eigenvalues --   15.14359  15.15724  15.76855  15.78154  15.80995
 Alpha virt. eigenvalues --   15.81289  15.91157  15.94803  15.94983  16.03398
 Alpha virt. eigenvalues --   16.19167  16.27323  16.42360  16.52446  47.63124
 Alpha virt. eigenvalues --   54.35158  54.63321 250.62797 283.21788 283.59693
          Condensed to atoms (all electrons):
               1          2          3
     1  F    9.086168   0.015040  -0.006933
     2  O    0.015040   7.781368   0.015040
     3  F   -0.006933   0.015040   9.086168
 Mulliken charges:
               1
     1  F   -0.094276
     2  O    0.188551
     3  F   -0.094276
 Sum of Mulliken charges =  -0.00000
 Mulliken charges with hydrogens summed into heavy atoms:
               1
     1  F   -0.094276
     2  O    0.188551
     3  F   -0.094276
 Electronic spatial extent (au):  <R**2>=            125.9130
 Charge=             -0.0000 electrons
 Dipole moment (field-independent basis, Debye):
    X=              0.0000    Y=              0.0000    Z=              0.3469  Tot=              0.3469
 Quadrupole moment (field-independent basis, Debye-Ang):
   XX=            -14.9817   YY=            -14.8640   ZZ=            -14.4274
   XY=             -0.0000   XZ=             -0.0000   YZ=             -0.0000
 Traceless Quadrupole moment (field-independent basis, Debye-Ang):
   XX=             -0.2240   YY=             -0.1063   ZZ=              0.3303
   XY=             -0.0000   XZ=             -0.0000   YZ=             -0.0000
 Octapole moment (field-independent basis, Debye-Ang**2):
  XXX=              0.0000  YYY=              0.0000  ZZZ=             -1.1331  XYY=              0.0000
  XXY=              0.0000  XXZ=             -0.6103  XZZ=              0.0000  YZZ=              0.0000
  YYZ=             -0.7159  XYZ=              0.0000
 Hexadecapole moment (field-independent basis, Debye-Ang**3):
 XXXX=             -9.8492 YYYY=            -77.2612 ZZZZ=            -24.0905 XXXY=             -0.0000
 XXXZ=             -0.0000 YYYX=             -0.0000 YYYZ=             -0.0000 ZZZX=             -0.0000
 ZZZY=              0.0000 XXYY=            -15.1161 XXZZ=             -6.0347 YYZZ=            -15.9989
 XXYZ=             -0.0000 YYXZ=             -0.0000 ZZXY=             -0.0000
 N-N= 7.368297245676D+01 E-N=-8.016422904925D+02  KE= 2.738303251509D+02
 PrsmSu:  requested number of processors reduced to:  21 ShMem   1 Linda.
 No NMR shielding tensors so no spin-rotation constants.
 Leave Link  601 at Sat Apr 17 13:02:46 2021, MaxMem=   104857600 cpu:             198.8 elap:               4.4
 (Enter /s/ls4/users/knvvv/bin/g16sse/l9999.exe)

 Test job not archived.
 1\1\GINC-N152\Stability\RM062X\Gen\F2O1\KNVVV\17-Apr-2021\0\\#P M062X/
 GEN Integral=UltraFineGrid SCF=NoSymm Stable=(RExt, Opt) IOp(1/33=1)\\
 Database calculations.\\0,1\F,0,0.,0.,0.\O,0,0.,0.,1.4055876\F,0,1.369
 0202745,0.,1.7241154468\\Version=ES64L-G16RevA.03\State=1-A1\HF=-274.6
 944849\RMSD=6.213e-09\Dipole=-0.1068692,0.,0.0848586\Quadrupole=0.1200
 4,-0.1665228,0.0464828,0.,-0.1580729,0.\PG=C02V [C2(O1),SGV(F2)]\\@


 DO NOT LET SELFISH MEN OR GREEDY INTERESTS SKIN YOUR COUNTRY OF ITS
 BEAUTY, ITS RICHES, OR ITS ROMANCE. -- THEODORE ROOSEVELT
 Job cpu time:       0 days  2 hours 19 minutes 21.0 seconds.
 Elapsed time:       0 days  0 hours  3 minutes 32.9 seconds.
 File lengths (MBytes):  RWF=    143 Int=      0 D2E=      0 Chk=      6 Scr=      1
 Normal termination of Gaussian 16 at Sat Apr 17 13:02:46 2021.
