 Entering Gaussian System, Link 0=/s/ls4/users/knvvv/bin/g16sse/g16
 Input=data/database/M062X--def2-QZVPPD--23_F3CNHBr_HNBrBDE18.gjf
 Output=data/database/M062X--def2-QZVPPD--23_F3CNHBr_HNBrBDE18.log
 Initial command:
 /s/ls4/users/knvvv/bin/g16sse/l1.exe "/s/ls4/users/knvvv/bin/scratch/Gau-25584.inp" -scrdir="/s/ls4/users/knvvv/bin/scratch/"
 Entering Link 1 = /s/ls4/users/knvvv/bin/g16sse/l1.exe PID=     25585.
  
 Copyright (c) 1988,1990,1992,1993,1995,1998,2003,2009,2016,
            Gaussian, Inc.  All Rights Reserved.
  
 This is part of the Gaussian(R) 16 program.  It is based on
 the Gaussian(R) 09 system (copyright 2009, Gaussian, Inc.),
 the Gaussian(R) 03 system (copyright 2003, Gaussian, Inc.),
 the Gaussian(R) 98 system (copyright 1998, Gaussian, Inc.),
 the Gaussian(R) 94 system (copyright 1995, Gaussian, Inc.),
 the Gaussian 92(TM) system (copyright 1992, Gaussian, Inc.),
 the Gaussian 90(TM) system (copyright 1990, Gaussian, Inc.),
 the Gaussian 88(TM) system (copyright 1988, Gaussian, Inc.),
 the Gaussian 86(TM) system (copyright 1986, Carnegie Mellon
 University), and the Gaussian 82(TM) system (copyright 1983,
 Carnegie Mellon University). Gaussian is a federally registered
 trademark of Gaussian, Inc.
  
 This software contains proprietary and confidential information,
 including trade secrets, belonging to Gaussian, Inc.
  
 This software is provided under written license and may be
 used, copied, transmitted, or stored only in accord with that
 written license.
  
 The following legend is applicable only to US Government
 contracts under FAR:
  
                    RESTRICTED RIGHTS LEGEND
  
 Use, reproduction and disclosure by the US Government is
 subject to restrictions as set forth in subparagraphs (a)
 and (c) of the Commercial Computer Software - Restricted
 Rights clause in FAR 52.227-19.
  
 Gaussian, Inc.
 340 Quinnipiac St., Bldg. 40, Wallingford CT 06492
  
  
 ---------------------------------------------------------------
 Warning -- This program may not be used in any manner that
 competes with the business of Gaussian, Inc. or will provide
 assistance to any competitor of Gaussian, Inc.  The licensee
 of this program is prohibited from giving any competitor of
 Gaussian, Inc. access to this program.  By using this program,
 the user acknowledges that Gaussian, Inc. is engaged in the
 business of creating and licensing software in the field of
 computational chemistry and represents and warrants to the
 licensee that it is not a competitor of Gaussian, Inc. and that
 it will not use this program in any manner prohibited above.
 ---------------------------------------------------------------
  

 Cite this work as:
 Gaussian 16, Revision A.03,
 M. J. Frisch, G. W. Trucks, H. B. Schlegel, G. E. Scuseria, 
 M. A. Robb, J. R. Cheeseman, G. Scalmani, V. Barone, 
 G. A. Petersson, H. Nakatsuji, X. Li, M. Caricato, A. V. Marenich, 
 J. Bloino, B. G. Janesko, R. Gomperts, B. Mennucci, H. P. Hratchian, 
 J. V. Ortiz, A. F. Izmaylov, J. L. Sonnenberg, D. Williams-Young, 
 F. Ding, F. Lipparini, F. Egidi, J. Goings, B. Peng, A. Petrone, 
 T. Henderson, D. Ranasinghe, V. G. Zakrzewski, J. Gao, N. Rega, 
 G. Zheng, W. Liang, M. Hada, M. Ehara, K. Toyota, R. Fukuda, 
 J. Hasegawa, M. Ishida, T. Nakajima, Y. Honda, O. Kitao, H. Nakai, 
 T. Vreven, K. Throssell, J. A. Montgomery, Jr., J. E. Peralta, 
 F. Ogliaro, M. J. Bearpark, J. J. Heyd, E. N. Brothers, K. N. Kudin, 
 V. N. Staroverov, T. A. Keith, R. Kobayashi, J. Normand, 
 K. Raghavachari, A. P. Rendell, J. C. Burant, S. S. Iyengar, 
 J. Tomasi, M. Cossi, J. M. Millam, M. Klene, C. Adamo, R. Cammi, 
 J. W. Ochterski, R. L. Martin, K. Morokuma, O. Farkas, 
 J. B. Foresman, and D. J. Fox, Gaussian, Inc., Wallingford CT, 2016.
 
 ******************************************
 Gaussian 16:  ES64L-G16RevA.03 25-Dec-2016
                17-Apr-2021 
 ******************************************
 %RWF=temp7_91847,70GB
 %nprocshared=48
 Will use up to   48 processors via shared memory.
 Default route: MaxDisk=80GB
 ----------------------------------------------------------------------
 #P M062X/GEN Integral=UltraFineGrid SCF=NoSymm Stable=(RExt, Opt) IOp(
 1/33=1)
 ----------------------------------------------------------------------
 1/33=1,38=1,172=1/1;
 2/12=2,17=6,18=5,40=1/2;
 3/5=7,11=2,25=1,30=1,74=-55,75=-5/1,2,3;
 4/9=2/1;
 5/5=2,38=5/2;
 6/7=2,8=2,9=2,10=2,28=1/1;
 8/6=1,10=90,11=11/1;
 9/8=-3,42=1,46=1/14;
 5/5=2,8=3,17=40,38=5/8(-2);
 6/7=2,8=2,9=2,10=2,28=1/1;
 99/5=1,9=1/99;
 Leave Link    1 at Sat Apr 17 20:44:40 2021, MaxMem=           0 cpu:              11.0 elap:               0.3
 (Enter /s/ls4/users/knvvv/bin/g16sse/l101.exe)
 ONIOM data not found on unit 2.
 ----------------------
 Database calculations.
 ----------------------
 TstMul:  ICh=     0
 TstMul:  Mul=     1
 TstMul:  ICh=     0
 TstMul:  Mul=     1
 Symbolic Z-matrix:
 Charge =  0 Multiplicity = 1
 C                     1.25873   0.00392  -0.01902 
 N                     0.13724   0.83715  -0.28397 
 H                     0.16279   1.63689   0.3397 
 F                     2.35978   0.76168  -0.1678 
 F                     1.30895  -0.52107   1.22722 
 F                     1.3105   -1.01534  -0.87719 
 Br                   -1.52825  -0.01565   0.00349 
 
 RdStrC is calling ZToCFu for IStruc=1 NZ=     7.
 PrtBox:  NBox=     1 Levels=  1 BoxLen=    8.00 SMaxX=        7.35
          Shift=            2.887982            1.918722            1.657649
 Box      1 Number                   0 centers from      1 to      7:
 After GenITR:
 ITRead=  0  0  0  0  0  0  0
 MicOpt= -1 -1 -1 -1 -1 -1 -1
 ITRead=  0  0  0  0  0  0  0
 MicOpt= -1 -1 -1 -1 -1 -1 -1
 NAtoms=      7 NQM=        7 NQMF=       0 NMMI=      0 NMMIF=      0
                NMic=       0 NMicF=      0.
                    Isotopes and Nuclear Properties:
 (Nuclear quadrupole moments (NQMom) in fm**2, nuclear magnetic moments (NMagM)
  in nuclear magnetons)

  Atom         1           2           3           4           5           6           7
 IAtWgt=          12          14           1          19          19          19          79
 AtmWgt=  12.0000000  14.0030740   1.0078250  18.9984033  18.9984033  18.9984033  78.9183361
 NucSpn=           0           2           1           1           1           1           3
 AtZEff=  -0.0000000  -0.0000000  -0.0000000  -0.0000000  -0.0000000  -0.0000000  -0.0000000
 NQMom=    0.0000000   2.0440000   0.0000000   0.0000000   0.0000000   0.0000000  31.3000000
 NMagM=    0.0000000   0.4037610   2.7928460   2.6288670   2.6288670   2.6288670   2.1063990
 AtZNuc=   6.0000000   7.0000000   1.0000000   9.0000000   9.0000000   9.0000000  35.0000000
 No MM parameters found.
 Leave Link  101 at Sat Apr 17 20:44:41 2021, MaxMem=   104857600 cpu:               7.4 elap:               0.2
 (Enter /s/ls4/users/knvvv/bin/g16sse/l202.exe)
                          Input orientation:                          
 ---------------------------------------------------------------------
 Center     Atomic      Atomic             Coordinates (Angstroms)
 Number     Number       Type             X           Y           Z
 ---------------------------------------------------------------------
      1          6           0        1.258730    0.003916   -0.019018
      2          7           0        0.137237    0.837147   -0.283965
      3          1           0        0.162788    1.636885    0.339696
      4          9           0        2.359777    0.761681   -0.167796
      5          9           0        1.308952   -0.521072    1.227219
      6          9           0        1.310501   -1.015344   -0.877190
      7         35           0       -1.528254   -0.015651    0.003487
 ---------------------------------------------------------------------
                    Distance matrix (angstroms):
                    1          2          3          4          5
     1  C    0.000000
     2  N    1.422047   0.000000
     3  H    1.999088   1.014488   0.000000
     4  F    1.344860   2.226853   2.418737   0.000000
     5  F    1.353234   2.345496   2.599648   2.166969   0.000000
     6  F    1.333428   2.271605   3.135662   2.182209   2.161676
     7  Br   2.787144   1.893080   2.388207   3.968673   3.130928
                    6          7
     6  F    0.000000
     7  Br   3.135842   0.000000
 Stoichiometry    CHBrF3N
 Framework group  C1[X(CHBrF3N)]
 Deg. of freedom    15
 Full point group                 C1      NOp   1
 Largest Abelian subgroup         C1      NOp   1
 Largest concise Abelian subgroup C1      NOp   1
                         Standard orientation:                         
 ---------------------------------------------------------------------
 Center     Atomic      Atomic             Coordinates (Angstroms)
 Number     Number       Type             X           Y           Z
 ---------------------------------------------------------------------
      1          6           0        1.258730    0.003916   -0.019018
      2          7           0        0.137237    0.837147   -0.283965
      3          1           0        0.162788    1.636885    0.339696
      4          9           0        2.359777    0.761681   -0.167796
      5          9           0        1.308952   -0.521072    1.227219
      6          9           0        1.310501   -1.015344   -0.877190
      7         35           0       -1.528254   -0.015651    0.003487
 ---------------------------------------------------------------------
 Rotational constants (GHZ):           5.4180553           1.2059307           1.1963506
 Leave Link  202 at Sat Apr 17 20:44:41 2021, MaxMem=   104857600 cpu:               4.2 elap:               0.1
 (Enter /s/ls4/users/knvvv/bin/g16sse/l301.exe)
 General basis read from cards:  (5D, 7F)
 Centers:       3
 S 4 1.00
     Exponent=  1.9069169000D+02 Coefficients=  7.0815167000D-04
     Exponent=  2.8605532000D+01 Coefficients=  5.4678827000D-03
     Exponent=  6.5095943000D+00 Coefficients=  2.7966605000D-02
     Exponent=  1.8412455000D+00 Coefficients=  1.0764538000D-01
 S 1 1.00
     Exponent=  5.9853725000D-01 Coefficients=  1.0000000000D+00
 S 1 1.00
     Exponent=  2.1397624000D-01 Coefficients=  1.0000000000D+00
 S 1 1.00
     Exponent=  8.0316286000D-02 Coefficients=  1.0000000000D+00
 P 1 1.00
     Exponent=  2.2920000000D+00 Coefficients=  1.0000000000D+00
 P 1 1.00
     Exponent=  8.3800000000D-01 Coefficients=  1.0000000000D+00
 P 1 1.00
     Exponent=  2.9200000000D-01 Coefficients=  1.0000000000D+00
 P 1 1.00
     Exponent=  8.4063199228D-02 Coefficients=  1.0000000000D+00
 D 1 1.00
     Exponent=  2.0620000000D+00 Coefficients=  1.0000000000D+00
 D 1 1.00
     Exponent=  6.6200000000D-01 Coefficients=  1.0000000000D+00
 F 1 1.00
     Exponent=  1.3970000000D+00 Coefficients=  1.0000000000D+00
 ****
 Centers:       1
 S 8 1.00
     Exponent=  6.7025071029D+04 Coefficients=  3.8736308501D-05
     Exponent=  1.0039986538D+04 Coefficients=  3.0107917575D-04
     Exponent=  2.2849316911D+03 Coefficients=  1.5787918095D-03
     Exponent=  6.4714122130D+02 Coefficients=  6.6087087195D-03
     Exponent=  2.1109472335D+02 Coefficients=  2.3367123250D-02
     Exponent=  7.6177643862D+01 Coefficients=  7.0420716898D-02
     Exponent=  2.9633839163D+01 Coefficients=  1.7360344953D-01
     Exponent=  1.2187785081D+01 Coefficients=  3.2292305648D-01
 S 2 1.00
     Exponent=  5.3026006299D+01 Coefficients=  7.4897404492D-02
     Exponent=  1.5258502776D+01 Coefficients=  7.6136220983D-01
 S 1 1.00
     Exponent=  5.2403957464D+00 Coefficients=  1.0000000000D+00
 S 1 1.00
     Exponent=  2.2905022379D+00 Coefficients=  1.0000000000D+00
 S 1 1.00
     Exponent=  6.9673283006D-01 Coefficients=  1.0000000000D+00
 S 1 1.00
     Exponent=  2.7599337363D-01 Coefficients=  1.0000000000D+00
 S 1 1.00
     Exponent=  1.0739884389D-01 Coefficients=  1.0000000000D+00
 S 1 1.00
     Exponent=  4.4981404899D-02 Coefficients=  1.0000000000D+00
 P 5 1.00
     Exponent=  1.0512555082D+02 Coefficients=  8.4647553844D-04
     Exponent=  2.4884461066D+01 Coefficients=  6.6274038534D-03
     Exponent=  7.8637230826D+00 Coefficients=  3.0120390419D-02
     Exponent=  2.8407001835D+00 Coefficients=  9.9951435476D-02
     Exponent=  1.1227137335D+00 Coefficients=  2.3826299282D-01
 P 1 1.00
     Exponent=  4.6050725555D-01 Coefficients=  1.0000000000D+00
 P 1 1.00
     Exponent=  1.8937530913D-01 Coefficients=  1.0000000000D+00
 P 1 1.00
     Exponent=  7.5983791611D-02 Coefficients=  1.0000000000D+00
 D 1 1.00
     Exponent=  1.8480000000D+00 Coefficients=  1.0000000000D+00
 D 1 1.00
     Exponent=  6.4900000000D-01 Coefficients=  1.0000000000D+00
 D 1 1.00
     Exponent=  2.2800000000D-01 Coefficients=  1.0000000000D+00
 D 1 1.00
     Exponent=  7.6889830417D-02 Coefficients=  1.0000000000D+00
 F 1 1.00
     Exponent=  1.4190000000D+00 Coefficients=  1.0000000000D+00
 F 1 1.00
     Exponent=  4.8500000000D-01 Coefficients=  1.0000000000D+00
 G 1 1.00
     Exponent=  1.0110000000D+00 Coefficients=  1.0000000000D+00
 ****
 Centers:       2
 S 8 1.00
     Exponent=  9.0726889210D+04 Coefficients=  3.9257887368D-05
     Exponent=  1.3590528801D+04 Coefficients=  3.0513316455D-04
     Exponent=  3.0929883781D+03 Coefficients=  1.6000560446D-03
     Exponent=  8.7599876362D+02 Coefficients=  6.6982937306D-03
     Exponent=  2.8574469982D+02 Coefficients=  2.3690078765D-02
     Exponent=  1.0311913417D+02 Coefficients=  7.1455405268D-02
     Exponent=  4.0128556777D+01 Coefficients=  1.7632774876D-01
     Exponent=  1.6528095704D+01 Coefficients=  3.2677592815D-01
 S 2 1.00
     Exponent=  6.9390960983D+01 Coefficients=  8.0052094386D-02
     Exponent=  2.0428200596D+01 Coefficients=  7.8268063538D-01
 S 1 1.00
     Exponent=  7.1292587972D+00 Coefficients=  1.0000000000D+00
 S 1 1.00
     Exponent=  3.1324304893D+00 Coefficients=  1.0000000000D+00
 S 1 1.00
     Exponent=  9.8755778723D-01 Coefficients=  1.0000000000D+00
 S 1 1.00
     Exponent=  3.8765721307D-01 Coefficients=  1.0000000000D+00
 S 1 1.00
     Exponent=  1.4909883075D-01 Coefficients=  1.0000000000D+00
 S 1 1.00
     Exponent=  6.2151630318D-02 Coefficients=  1.0000000000D+00
 P 5 1.00
     Exponent=  1.5005742670D+02 Coefficients= -8.6216165986D-04
     Exponent=  3.5491599483D+01 Coefficients= -6.8571273236D-03
     Exponent=  1.1247864223D+01 Coefficients= -3.1795688855D-02
     Exponent=  4.0900305195D+00 Coefficients= -1.0537396822D-01
     Exponent=  1.6220573146D+00 Coefficients= -2.4519708041D-01
 P 1 1.00
     Exponent=  6.6442261530D-01 Coefficients=  1.0000000000D+00
 P 1 1.00
     Exponent=  2.7099770070D-01 Coefficients=  1.0000000000D+00
 P 1 1.00
     Exponent=  1.0688749984D-01 Coefficients=  1.0000000000D+00
 D 1 1.00
     Exponent=  2.8370000000D+00 Coefficients=  1.0000000000D+00
 D 1 1.00
     Exponent=  9.6800000000D-01 Coefficients=  1.0000000000D+00
 D 1 1.00
     Exponent=  3.3500000000D-01 Coefficients=  1.0000000000D+00
 D 1 1.00
     Exponent=  1.0825280010D-01 Coefficients=  1.0000000000D+00
 F 1 1.00
     Exponent=  2.0270000000D+00 Coefficients=  1.0000000000D+00
 F 1 1.00
     Exponent=  6.8500000000D-01 Coefficients=  1.0000000000D+00
 G 1 1.00
     Exponent=  1.4270000000D+00 Coefficients=  1.0000000000D+00
 ****
 Centers:       4      5      6
 S 8 1.00
     Exponent=  1.3253597345D+05 Coefficients=  4.7387482743D-05
     Exponent=  1.9758112588D+04 Coefficients=  3.7070120897D-04
     Exponent=  4.4851996947D+03 Coefficients=  1.9450784713D-03
     Exponent=  1.2738151020D+03 Coefficients=  8.0573291994D-03
     Exponent=  4.1893831236D+02 Coefficients=  2.7992880781D-02
     Exponent=  1.5255721985D+02 Coefficients=  8.2735120175D-02
     Exponent=  5.9821524823D+01 Coefficients=  1.9854169012D-01
     Exponent=  2.4819076932D+01 Coefficients=  3.4860632233D-01
 S 2 1.00
     Exponent=  1.0074446673D+02 Coefficients=  1.0505068816D-01
     Exponent=  3.0103728290D+01 Coefficients=  9.4068472434D-01
 S 1 1.00
     Exponent=  1.0814283272D+01 Coefficients=  1.0000000000D+00
 S 1 1.00
     Exponent=  4.8172886770D+00 Coefficients=  1.0000000000D+00
 S 1 1.00
     Exponent=  1.6559334213D+00 Coefficients=  1.0000000000D+00
 S 1 1.00
     Exponent=  6.4893519582D-01 Coefficients=  1.0000000000D+00
 S 1 1.00
     Exponent=  2.4778104545D-01 Coefficients=  1.0000000000D+00
 S 1 1.00
     Exponent=  8.7626236800D-02 Coefficients=  1.0000000000D+00
 P 5 1.00
     Exponent=  2.4096654114D+02 Coefficients=  3.0389933451D-03
     Exponent=  5.7020699781D+01 Coefficients=  2.4357738582D-02
     Exponent=  1.8126952120D+01 Coefficients=  1.1442925768D-01
     Exponent=  6.6457404621D+00 Coefficients=  3.7064659853D-01
     Exponent=  2.6375722892D+00 Coefficients=  7.9791551766D-01
 P 1 1.00
     Exponent=  1.0638217200D+00 Coefficients=  1.0000000000D+00
 P 1 1.00
     Exponent=  4.1932562750D-01 Coefficients=  1.0000000000D+00
 P 1 1.00
     Exponent=  1.5747588299D-01 Coefficients=  1.0000000000D+00
 P 1 1.00
     Exponent=  4.6772400332D-02 Coefficients=  1.0000000000D+00
 D 1 1.00
     Exponent=  5.0140000000D+00 Coefficients=  1.0000000000D+00
 D 1 1.00
     Exponent=  1.7250000000D+00 Coefficients=  1.0000000000D+00
 D 1 1.00
     Exponent=  5.8600000000D-01 Coefficients=  1.0000000000D+00
 D 1 1.00
     Exponent=  1.5967986245D-01 Coefficients=  1.0000000000D+00
 F 1 1.00
     Exponent=  3.5620000000D+00 Coefficients=  1.0000000000D+00
 F 1 1.00
     Exponent=  1.1480000000D+00 Coefficients=  1.0000000000D+00
 G 1 1.00
     Exponent=  2.3760000000D+00 Coefficients=  1.0000000000D+00
 ****
 Centers:       7
 S 11 1.00
     Exponent=  1.0629044264D+07 Coefficients=  5.9322104325D-06
     Exponent=  1.5919182739D+06 Coefficients=  4.6118980689D-05
     Exponent=  3.6233398437D+05 Coefficients=  2.4244612378D-04
     Exponent=  1.0264311141D+05 Coefficients=  1.0231422748D-03
     Exponent=  3.3489846668D+04 Coefficients=  3.7121984175D-03
     Exponent=  1.2091247190D+04 Coefficients=  1.1978107933D-02
     Exponent=  4.7161908789D+03 Coefficients=  3.4682692842D-02
     Exponent=  1.9561598080D+03 Coefficients=  8.9068331264D-02
     Exponent=  8.5308595848D+02 Coefficients=  1.9330124567D-01
     Exponent=  3.8796633666D+02 Coefficients=  3.2071144956D-01
     Exponent=  1.8285156613D+02 Coefficients=  3.2996797574D-01
 S 4 1.00
     Exponent=  3.2404086421D+03 Coefficients=  6.5905194070D-03
     Exponent=  1.0004631935D+03 Coefficients=  6.8439609656D-02
     Exponent=  3.8337301682D+02 Coefficients=  3.4495478668D-01
     Exponent=  1.6603929698D+02 Coefficients=  8.2315542085D-01
 S 1 1.00
     Exponent=  8.7919906994D+01 Coefficients=  1.0000000000D+00
 S 1 1.00
     Exponent=  3.5675840068D+01 Coefficients=  1.0000000000D+00
 S 1 1.00
     Exponent=  1.7543657842D+01 Coefficients=  1.0000000000D+00
 S 1 1.00
     Exponent=  8.4473660433D+00 Coefficients=  1.0000000000D+00
 S 1 1.00
     Exponent=  3.9666180616D+00 Coefficients=  1.0000000000D+00
 S 1 1.00
     Exponent=  1.8356815987D+00 Coefficients=  1.0000000000D+00
 S 1 1.00
     Exponent=  5.9084778776D-01 Coefficients=  1.0000000000D+00
 S 1 1.00
     Exponent=  2.8863218421D-01 Coefficients=  1.0000000000D+00
 S 1 1.00
     Exponent=  1.2153380537D-01 Coefficients=  1.0000000000D+00
 S 1 1.00
     Exponent=  4.7973937210D-02 Coefficients=  1.0000000000D+00
 P 10 1.00
     Exponent=  2.6566476579D+04 Coefficients=  6.2073657410D-05
     Exponent=  6.2905088566D+03 Coefficients=  5.5131636217D-04
     Exponent=  2.0433178410D+03 Coefficients=  3.1680110980D-03
     Exponent=  7.8167221007D+02 Coefficients=  1.3816597290D-02
     Exponent=  3.3151078945D+02 Coefficients=  4.8018539681D-02
     Exponent=  1.5109198667D+02 Coefficients=  1.3162015183D-01
     Exponent=  7.2395278166D+01 Coefficients=  2.6860052203D-01
     Exponent=  3.5869510844D+01 Coefficients=  3.6827391093D-01
     Exponent=  1.8139906191D+01 Coefficients=  2.7108612944D-01
     Exponent=  9.0466688944D+00 Coefficients=  7.6215338633D-02
 P 5 1.00
     Exponent=  2.5371822146D+02 Coefficients= -1.3729169381D-03
     Exponent=  9.7250818058D+01 Coefficients= -1.0393811185D-02
     Exponent=  4.2034897960D+01 Coefficients= -3.2204214612D-02
     Exponent=  9.9685673555D+00 Coefficients=  2.4224770086D-01
     Exponent=  4.9395854745D+00 Coefficients=  5.3557868398D-01
 P 1 1.00
     Exponent=  2.4382845475D+00 Coefficients=  1.0000000000D+00
 P 1 1.00
     Exponent=  1.1800000000D+00 Coefficients=  1.0000000000D+00
 P 1 1.00
     Exponent=  5.1047564965D-01 Coefficients=  1.0000000000D+00
 P 1 1.00
     Exponent=  2.1215851928D-01 Coefficients=  1.0000000000D+00
 P 1 1.00
     Exponent=  8.3943604990D-02 Coefficients=  1.0000000000D+00
 P 1 1.00
     Exponent=  2.4444628965D-02 Coefficients=  1.0000000000D+00
 D 7 1.00
     Exponent=  6.0144434484D+02 Coefficients=  6.2783723765D-04
     Exponent=  1.8085718640D+02 Coefficients=  5.7205157153D-03
     Exponent=  6.9986806340D+01 Coefficients=  2.9002521527D-02
     Exponent=  3.0324710300D+01 Coefficients=  9.6446989766D-02
     Exponent=  1.4027909238D+01 Coefficients=  2.2065825870D-01
     Exponent=  6.6511702082D+00 Coefficients=  3.3657642375D-01
     Exponent=  3.1354168338D+00 Coefficients=  3.4872040582D-01
 D 1 1.00
     Exponent=  1.4393591843D+00 Coefficients=  2.0984536473D-01
 D 1 1.00
     Exponent=  5.9350441438D-01 Coefficients=  1.0000000000D+00
 D 1 1.00
     Exponent=  2.3000000000D-01 Coefficients=  1.0000000000D+00
 D 1 1.00
     Exponent=  7.6665512897D-02 Coefficients=  1.0000000000D+00
 F 1 1.00
     Exponent=  1.2703062423D+01 Coefficients=  1.0000000000D+00
 F 1 1.00
     Exponent=  4.0083455670D+00 Coefficients=  1.0000000000D+00
 F 1 1.00
     Exponent=  8.2570000000D-01 Coefficients=  1.0000000000D+00
 F 1 1.00
     Exponent=  3.4070000000D-01 Coefficients=  1.0000000000D+00
 G 1 1.00
     Exponent=  6.4910000000D-01 Coefficients=  1.0000000000D+00
 ****
 Ernie: Thresh=  0.10000D-02 Tol=  0.10000D-05 Strict=F.
 There are   563 symmetry adapted cartesian basis functions of A   symmetry.
 There are   455 symmetry adapted basis functions of A   symmetry.
   455 basis functions,   754 primitive gaussians,   563 cartesian basis functions
    38 alpha electrons       38 beta electrons
       nuclear repulsion energy       457.6057429234 Hartrees.
 IExCor= 4336 DFT=T Ex+Corr=M062X ExCW=0 ScaHFX=  0.540000
 ScaDFX=  1.000000  1.000000  1.000000  1.000000 ScalE2=  1.000000  1.000000
 IRadAn=      5 IRanWt=     -1 IRanGd=            0 ICorTp=0 IEmpDi=  4
 NAtoms=    7 NActive=    7 NUniq=    7 SFac= 1.00D+00 NAtFMM=   60 NAOKFM=F Big=F
 Integral buffers will be    131072 words long.
 Raffenetti 2 integral format.
 Two-electron integral symmetry is turned on.
 Leave Link  301 at Sat Apr 17 20:44:41 2021, MaxMem=   104857600 cpu:               8.3 elap:               0.2
 (Enter /s/ls4/users/knvvv/bin/g16sse/l302.exe)
 NPDir=0 NMtPBC=     1 NCelOv=     1 NCel=       1 NClECP=     1 NCelD=      1
         NCelK=      1 NCelE2=     1 NClLst=     1 CellRange=     0.0.
 One-electron integrals computed using PRISM.
 One-electron integral symmetry used in STVInt
 PrsmSu:  requested number of processors reduced to:   4 ShMem   1 Linda.
 PrsmSu:  requested number of processors reduced to:  20 ShMem   1 Linda.
 NBasis=   455 RedAO= T EigKep=  3.18D-05  NBF=   455
 NBsUse=   455 1.00D-06 EigRej= -1.00D+00 NBFU=   455
 Precomputing XC quadrature grid using
 IXCGrd= 4 IRadAn=           5 IRanWt=          -1 IRanGd=           0 AccXCQ= 0.00D+00.
 Generated NRdTot=       0 NPtTot=           0 NUsed=           0 NTot=          32
 NSgBfM=   560   560   560   560   560 MxSgAt=     7 MxSgA2=     7.
 Leave Link  302 at Sat Apr 17 20:44:49 2021, MaxMem=   104857600 cpu:             377.6 elap:               8.2
 (Enter /s/ls4/users/knvvv/bin/g16sse/l303.exe)
 DipDrv:  MaxL=1.
 Leave Link  303 at Sat Apr 17 20:44:54 2021, MaxMem=   104857600 cpu:             228.1 elap:               5.0
 (Enter /s/ls4/users/knvvv/bin/g16sse/l401.exe)
 SCF N**3 symmetry information disabled.
 ExpMin= 2.44D-02 ExpMax= 1.06D+07 ExpMxC= 1.21D+04 IAcc=3 IRadAn=         5 AccDes= 0.00D+00
 Harris functional with IExCor= 1009 and IRadAn=       5 diagonalized for initial guess.
 HarFok:  IExCor= 1009 AccDes= 0.00D+00 IRadAn=         5 IDoV= 1 UseB2=F ITyADJ=14
 ICtDFT=  3500011 ScaDFX=  1.000000  1.000000  1.000000  1.000000
 FoFCou: FMM=F IPFlag=           0 FMFlag=      100000 FMFlg1=           0
         NFxFlg=           0 DoJE=T BraDBF=F KetDBF=T FulRan=T
         wScrn=  0.000000 ICntrl=       500 IOpCl=  0 I1Cent=   200000004 NGrid=           0
         NMat0=    1 NMatS0=      1 NMatT0=    0 NMatD0=    1 NMtDS0=    0 NMtDT0=    0
 Petite list used in FoFCou.
 CoulSu:  requested number of processors reduced to:  19 ShMem   1 Linda.
 CoulSu:  requested number of processors reduced to:  19 ShMem   1 Linda.
 CoulSu:  requested number of processors reduced to:  21 ShMem   1 Linda.
 CoulSu:  requested number of processors reduced to:  21 ShMem   1 Linda.
 Harris En= -2966.61830484343    
 JPrj=0 DoOrth=F DoCkMO=F.
 Leave Link  401 at Sat Apr 17 20:44:56 2021, MaxMem=   104857600 cpu:              67.0 elap:               1.7
 (Enter /s/ls4/users/knvvv/bin/g16sse/l502.exe)
 Integral symmetry usage will be decided dynamically.
 Closed shell SCF:
 Using DIIS extrapolation, IDIIS=  1040.
 NGot=   104857600 LenX=   104192277 LenY=   103874745
 Requested convergence on RMS density matrix=1.00D-08 within 128 cycles.
 Requested convergence on MAX density matrix=1.00D-06.
 Requested convergence on             energy=1.00D-06.
 No special actions if energy rises.
 Fock matrices will be formed incrementally for  20 cycles.

 Cycle   1  Pass 1  IDiag  1:
 FoFJK:  IHMeth= 1 ICntrl=       0 DoSepK=F KAlg= 0 I1Cent=           0 FoldK=F
 IRaf= 930000000 NMat=       1 IRICut=       1 DoRegI=T DoRafI=F ISym2E= 0 IDoP0=0 IntGTp=1.
 FoFCou: FMM=F IPFlag=           0 FMFlag=      100000 FMFlg1=           0
         NFxFlg=           0 DoJE=F BraDBF=F KetDBF=F FulRan=T
         wScrn=  0.000000 ICntrl=         0 IOpCl=  0 I1Cent=           0 NGrid=           0
         NMat0=    1 NMatS0=      1 NMatT0=    0 NMatD0=    1 NMtDS0=    0 NMtDT0=    0
 Symmetry not used in FoFCou.
 CoulSu:  requested number of processors reduced to:  20 ShMem   1 Linda.
 E= -2967.14444431054    
 DIIS: error= 3.74D-02 at cycle   1 NSaved=   1.
 NSaved= 1 IEnMin= 1 EnMin= -2967.14444431054     IErMin= 1 ErrMin= 3.74D-02
 ErrMax= 3.74D-02  0.00D+00 EMaxC= 1.00D-01 BMatC= 1.38D+00 BMatP= 1.38D+00
 IDIUse=3 WtCom= 6.26D-01 WtEn= 3.74D-01
 Coeff-Com:  0.100D+01
 Coeff-En:   0.100D+01
 Coeff:      0.100D+01
 Gap=     0.306 Goal=   None    Shift=    0.000
 GapD=    0.306 DampG=1.000 DampE=0.500 DampFc=0.5000 IDamp=-1.
 Damping current iteration by 5.00D-01
 RMSDP=1.31D-03 MaxDP=9.66D-02              OVMax= 8.59D-02

 Cycle   2  Pass 1  IDiag  1:
 RMSU=  6.51D-04    CP:  1.00D+00
 CoulSu:  requested number of processors reduced to:  20 ShMem   1 Linda.
 E= -2967.21346392714     Delta-E=       -0.069019616603 Rises=F Damp=T
 DIIS: error= 1.96D-02 at cycle   2 NSaved=   2.
 NSaved= 2 IEnMin= 2 EnMin= -2967.21346392714     IErMin= 2 ErrMin= 1.96D-02
 ErrMax= 1.96D-02  0.00D+00 EMaxC= 1.00D-01 BMatC= 2.16D-01 BMatP= 1.38D+00
 IDIUse=3 WtCom= 8.04D-01 WtEn= 1.96D-01
 Coeff-Com: -0.393D+00 0.139D+01
 Coeff-En:   0.000D+00 0.100D+01
 Coeff:     -0.316D+00 0.132D+01
 Gap=     0.317 Goal=   None    Shift=    0.000
 RMSDP=5.41D-04 MaxDP=5.03D-02 DE=-6.90D-02 OVMax= 7.29D-02

 Cycle   3  Pass 1  IDiag  1:
 RMSU=  4.69D-04    CP:  1.00D+00  1.41D+00
 CoulSu:  requested number of processors reduced to:  20 ShMem   1 Linda.
 E= -2967.26844409406     Delta-E=       -0.054980166916 Rises=F Damp=F
 DIIS: error= 5.06D-03 at cycle   3 NSaved=   3.
 NSaved= 3 IEnMin= 3 EnMin= -2967.26844409406     IErMin= 3 ErrMin= 5.06D-03
 ErrMax= 5.06D-03  0.00D+00 EMaxC= 1.00D-01 BMatC= 3.38D-02 BMatP= 2.16D-01
 IDIUse=3 WtCom= 9.49D-01 WtEn= 5.06D-02
 Coeff-Com: -0.219D+00 0.486D+00 0.733D+00
 Coeff-En:   0.000D+00 0.000D+00 0.100D+01
 Coeff:     -0.208D+00 0.462D+00 0.746D+00
 Gap=     0.309 Goal=   None    Shift=    0.000
 RMSDP=2.40D-04 MaxDP=1.40D-02 DE=-5.50D-02 OVMax= 3.62D-02

 Cycle   4  Pass 1  IDiag  1:
 RMSU=  1.23D-04    CP:  1.00D+00  1.60D+00  6.50D-01
 CoulSu:  requested number of processors reduced to:  20 ShMem   1 Linda.
 E= -2967.28420281300     Delta-E=       -0.015758718942 Rises=F Damp=F
 DIIS: error= 1.63D-03 at cycle   4 NSaved=   4.
 NSaved= 4 IEnMin= 4 EnMin= -2967.28420281300     IErMin= 4 ErrMin= 1.63D-03
 ErrMax= 1.63D-03  0.00D+00 EMaxC= 1.00D-01 BMatC= 2.83D-03 BMatP= 3.38D-02
 IDIUse=3 WtCom= 9.84D-01 WtEn= 1.63D-02
 Coeff-Com: -0.833D-01 0.171D+00 0.360D+00 0.553D+00
 Coeff-En:   0.000D+00 0.000D+00 0.000D+00 0.100D+01
 Coeff:     -0.820D-01 0.168D+00 0.354D+00 0.560D+00
 Gap=     0.304 Goal=   None    Shift=    0.000
 RMSDP=8.00D-05 MaxDP=6.17D-03 DE=-1.58D-02 OVMax= 1.29D-02

 Cycle   5  Pass 1  IDiag  1:
 RMSU=  3.72D-05    CP:  1.00D+00  1.56D+00  7.59D-01  6.68D-01
 CoulSu:  requested number of processors reduced to:  20 ShMem   1 Linda.
 E= -2967.28597878354     Delta-E=       -0.001775970540 Rises=F Damp=F
 DIIS: error= 2.28D-04 at cycle   5 NSaved=   5.
 NSaved= 5 IEnMin= 5 EnMin= -2967.28597878354     IErMin= 5 ErrMin= 2.28D-04
 ErrMax= 2.28D-04  0.00D+00 EMaxC= 1.00D-01 BMatC= 6.80D-05 BMatP= 2.83D-03
 IDIUse=3 WtCom= 9.98D-01 WtEn= 2.28D-03
 Coeff-Com: -0.300D-01 0.606D-01 0.139D+00 0.256D+00 0.574D+00
 Coeff-En:   0.000D+00 0.000D+00 0.000D+00 0.000D+00 0.100D+01
 Coeff:     -0.299D-01 0.604D-01 0.139D+00 0.255D+00 0.575D+00
 Gap=     0.303 Goal=   None    Shift=    0.000
 RMSDP=1.43D-05 MaxDP=1.00D-03 DE=-1.78D-03 OVMax= 2.05D-03

 Cycle   6  Pass 1  IDiag  1:
 RMSU=  8.24D-06    CP:  1.00D+00  1.56D+00  7.48D-01  7.34D-01  8.22D-01
 CoulSu:  requested number of processors reduced to:  20 ShMem   1 Linda.
 E= -2967.28602442700     Delta-E=       -0.000045643455 Rises=F Damp=F
 DIIS: error= 7.84D-05 at cycle   6 NSaved=   6.
 NSaved= 6 IEnMin= 6 EnMin= -2967.28602442700     IErMin= 6 ErrMin= 7.84D-05
 ErrMax= 7.84D-05  0.00D+00 EMaxC= 1.00D-01 BMatC= 7.27D-06 BMatP= 6.80D-05
 IDIUse=1 WtCom= 1.00D+00 WtEn= 0.00D+00
 Coeff-Com:  0.374D-02-0.788D-02-0.948D-02 0.118D-01 0.252D+00 0.750D+00
 Coeff:      0.374D-02-0.788D-02-0.948D-02 0.118D-01 0.252D+00 0.750D+00
 Gap=     0.303 Goal=   None    Shift=    0.000
 RMSDP=5.04D-06 MaxDP=3.11D-04 DE=-4.56D-05 OVMax= 5.93D-04

 Cycle   7  Pass 1  IDiag  1:
 RMSU=  3.10D-06    CP:  1.00D+00  1.56D+00  7.52D-01  7.37D-01  9.13D-01
                    CP:  1.01D+00
 CoulSu:  requested number of processors reduced to:  20 ShMem   1 Linda.
 E= -2967.28602877795     Delta-E=       -0.000004350951 Rises=F Damp=F
 DIIS: error= 1.12D-05 at cycle   7 NSaved=   7.
 NSaved= 7 IEnMin= 7 EnMin= -2967.28602877795     IErMin= 7 ErrMin= 1.12D-05
 ErrMax= 1.12D-05  0.00D+00 EMaxC= 1.00D-01 BMatC= 2.28D-07 BMatP= 7.27D-06
 IDIUse=1 WtCom= 1.00D+00 WtEn= 0.00D+00
 Coeff-Com:  0.195D-02-0.402D-02-0.914D-02-0.118D-01 0.247D-01 0.175D+00
 Coeff-Com:  0.823D+00
 Coeff:      0.195D-02-0.402D-02-0.914D-02-0.118D-01 0.247D-01 0.175D+00
 Coeff:      0.823D+00
 Gap=     0.303 Goal=   None    Shift=    0.000
 RMSDP=1.14D-06 MaxDP=7.97D-05 DE=-4.35D-06 OVMax= 1.88D-04

 Cycle   8  Pass 1  IDiag  1:
 RMSU=  7.97D-07    CP:  1.00D+00  1.56D+00  7.52D-01  7.41D-01  9.31D-01
                    CP:  1.02D+00  9.39D-01
 CoulSu:  requested number of processors reduced to:  20 ShMem   1 Linda.
 E= -2967.28602896613     Delta-E=       -0.000000188183 Rises=F Damp=F
 DIIS: error= 2.89D-06 at cycle   8 NSaved=   8.
 NSaved= 8 IEnMin= 8 EnMin= -2967.28602896613     IErMin= 8 ErrMin= 2.89D-06
 ErrMax= 2.89D-06  0.00D+00 EMaxC= 1.00D-01 BMatC= 1.45D-08 BMatP= 2.28D-07
 IDIUse=1 WtCom= 1.00D+00 WtEn= 0.00D+00
 Coeff-Com:  0.222D-03-0.445D-03-0.159D-02-0.372D-02-0.132D-01-0.175D-01
 Coeff-Com:  0.194D+00 0.842D+00
 Coeff:      0.222D-03-0.445D-03-0.159D-02-0.372D-02-0.132D-01-0.175D-01
 Coeff:      0.194D+00 0.842D+00
 Gap=     0.303 Goal=   None    Shift=    0.000
 RMSDP=4.25D-07 MaxDP=2.32D-05 DE=-1.88D-07 OVMax= 1.13D-04

 Cycle   9  Pass 1  IDiag  1:
 RMSU=  2.65D-07    CP:  1.00D+00  1.56D+00  7.52D-01  7.40D-01  9.35D-01
                    CP:  1.03D+00  1.00D+00  1.18D+00
 CoulSu:  requested number of processors reduced to:  20 ShMem   1 Linda.
 E= -2967.28602898970     Delta-E=       -0.000000023573 Rises=F Damp=F
 DIIS: error= 1.53D-06 at cycle   9 NSaved=   9.
 NSaved= 9 IEnMin= 9 EnMin= -2967.28602898970     IErMin= 9 ErrMin= 1.53D-06
 ErrMax= 1.53D-06  0.00D+00 EMaxC= 1.00D-01 BMatC= 3.03D-09 BMatP= 1.45D-08
 IDIUse=1 WtCom= 1.00D+00 WtEn= 0.00D+00
 Coeff-Com: -0.154D-03 0.321D-03 0.584D-03 0.324D-03-0.687D-02-0.225D-01
 Coeff-Com: -0.273D-01 0.282D+00 0.773D+00
 Coeff:     -0.154D-03 0.321D-03 0.584D-03 0.324D-03-0.687D-02-0.225D-01
 Coeff:     -0.273D-01 0.282D+00 0.773D+00
 Gap=     0.303 Goal=   None    Shift=    0.000
 RMSDP=1.53D-07 MaxDP=1.00D-05 DE=-2.36D-08 OVMax= 4.96D-05

 Cycle  10  Pass 1  IDiag  1:
 RMSU=  8.35D-08    CP:  1.00D+00  1.56D+00  7.52D-01  7.40D-01  9.35D-01
                    CP:  1.04D+00  1.02D+00  1.29D+00  1.22D+00
 CoulSu:  requested number of processors reduced to:  20 ShMem   1 Linda.
 E= -2967.28602899411     Delta-E=       -0.000000004406 Rises=F Damp=F
 DIIS: error= 7.37D-07 at cycle  10 NSaved=  10.
 NSaved=10 IEnMin=10 EnMin= -2967.28602899411     IErMin=10 ErrMin= 7.37D-07
 ErrMax= 7.37D-07  0.00D+00 EMaxC= 1.00D-01 BMatC= 4.97D-10 BMatP= 3.03D-09
 IDIUse=1 WtCom= 1.00D+00 WtEn= 0.00D+00
 Coeff-Com: -0.924D-04 0.190D-03 0.477D-03 0.740D-03-0.704D-03-0.563D-02
 Coeff-Com: -0.472D-01-0.330D-01 0.248D+00 0.837D+00
 Coeff:     -0.924D-04 0.190D-03 0.477D-03 0.740D-03-0.704D-03-0.563D-02
 Coeff:     -0.472D-01-0.330D-01 0.248D+00 0.837D+00
 Gap=     0.303 Goal=   None    Shift=    0.000
 RMSDP=9.25D-08 MaxDP=5.47D-06 DE=-4.41D-09 OVMax= 3.05D-05

 Cycle  11  Pass 1  IDiag  1:
 RMSU=  3.65D-08    CP:  1.00D+00  1.56D+00  7.52D-01  7.40D-01  9.35D-01
                    CP:  1.04D+00  1.03D+00  1.36D+00  1.41D+00  1.27D+00
 CoulSu:  requested number of processors reduced to:  20 ShMem   1 Linda.
 E= -2967.28602899519     Delta-E=       -0.000000001084 Rises=F Damp=F
 DIIS: error= 1.95D-07 at cycle  11 NSaved=  11.
 NSaved=11 IEnMin=11 EnMin= -2967.28602899519     IErMin=11 ErrMin= 1.95D-07
 ErrMax= 1.95D-07  0.00D+00 EMaxC= 1.00D-01 BMatC= 8.59D-11 BMatP= 4.97D-10
 IDIUse=1 WtCom= 1.00D+00 WtEn= 0.00D+00
 Coeff-Com:  0.100D-04-0.217D-04 0.651D-05 0.163D-03 0.128D-02 0.327D-02
 Coeff-Com: -0.116D-01-0.599D-01-0.748D-01 0.285D+00 0.857D+00
 Coeff:      0.100D-04-0.217D-04 0.651D-05 0.163D-03 0.128D-02 0.327D-02
 Coeff:     -0.116D-01-0.599D-01-0.748D-01 0.285D+00 0.857D+00
 Gap=     0.303 Goal=   None    Shift=    0.000
 RMSDP=4.11D-08 MaxDP=2.67D-06 DE=-1.08D-09 OVMax= 1.44D-05

 Cycle  12  Pass 1  IDiag  1:
 RMSU=  1.24D-08    CP:  1.00D+00  1.56D+00  7.52D-01  7.40D-01  9.36D-01
                    CP:  1.04D+00  1.03D+00  1.39D+00  1.50D+00  1.50D+00
                    CP:  1.21D+00
 CoulSu:  requested number of processors reduced to:  20 ShMem   1 Linda.
 E= -2967.28602899533     Delta-E=       -0.000000000135 Rises=F Damp=F
 DIIS: error= 7.09D-08 at cycle  12 NSaved=  12.
 NSaved=12 IEnMin=12 EnMin= -2967.28602899533     IErMin=12 ErrMin= 7.09D-08
 ErrMax= 7.09D-08  0.00D+00 EMaxC= 1.00D-01 BMatC= 4.80D-12 BMatP= 8.59D-11
 IDIUse=1 WtCom= 1.00D+00 WtEn= 0.00D+00
 Coeff-Com:  0.780D-05-0.162D-04-0.356D-04-0.345D-04 0.306D-03 0.121D-02
 Coeff-Com:  0.298D-02-0.812D-02-0.419D-01-0.393D-01 0.128D+00 0.957D+00
 Coeff:      0.780D-05-0.162D-04-0.356D-04-0.345D-04 0.306D-03 0.121D-02
 Coeff:      0.298D-02-0.812D-02-0.419D-01-0.393D-01 0.128D+00 0.957D+00
 Gap=     0.303 Goal=   None    Shift=    0.000
 RMSDP=1.20D-08 MaxDP=6.59D-07 DE=-1.35D-10 OVMax= 4.23D-06

 Cycle  13  Pass 1  IDiag  1:
 RMSU=  3.57D-09    CP:  1.00D+00  1.56D+00  7.52D-01  7.40D-01  9.36D-01
                    CP:  1.04D+00  1.03D+00  1.40D+00  1.52D+00  1.56D+00
                    CP:  1.33D+00  1.22D+00
 CoulSu:  requested number of processors reduced to:  20 ShMem   1 Linda.
 E= -2967.28602899535     Delta-E=       -0.000000000022 Rises=F Damp=F
 DIIS: error= 2.30D-08 at cycle  13 NSaved=  13.
 NSaved=13 IEnMin=13 EnMin= -2967.28602899535     IErMin=13 ErrMin= 2.30D-08
 ErrMax= 2.30D-08  0.00D+00 EMaxC= 1.00D-01 BMatC= 4.52D-13 BMatP= 4.80D-12
 IDIUse=1 WtCom= 1.00D+00 WtEn= 0.00D+00
 Coeff-Com:  0.169D-05-0.345D-05-0.107D-04-0.221D-04-0.180D-04 0.295D-04
 Coeff-Com:  0.165D-02 0.239D-02-0.439D-02-0.288D-01-0.276D-01 0.236D+00
 Coeff-Com:  0.821D+00
 Coeff:      0.169D-05-0.345D-05-0.107D-04-0.221D-04-0.180D-04 0.295D-04
 Coeff:      0.165D-02 0.239D-02-0.439D-02-0.288D-01-0.276D-01 0.236D+00
 Coeff:      0.821D+00
 Gap=     0.303 Goal=   None    Shift=    0.000
 RMSDP=2.16D-09 MaxDP=1.11D-07 DE=-2.18D-11 OVMax= 6.55D-07

 SCF Done:  E(RM062X) =  -2967.28602900     A.U. after   13 cycles
            NFock= 13  Conv=0.22D-08     -V/T= 2.0022
 KE= 2.960765397193D+03 PE=-7.998238453807D+03 EE= 1.612581284695D+03
 Leave Link  502 at Sat Apr 17 20:48:46 2021, MaxMem=   104857600 cpu:            7199.1 elap:             230.5
 (Enter /s/ls4/users/knvvv/bin/g16sse/l601.exe)
 Copying SCF densities to generalized density rwf, IOpCl= 0 IROHF=0.

 **********************************************************************

            Population analysis using the SCF density.

 **********************************************************************

 Orbital symmetries:
       Occupied  (A) (A) (A) (A) (A) (A) (A) (A) (A) (A) (A) (A)
                 (A) (A) (A) (A) (A) (A) (A) (A) (A) (A) (A) (A)
                 (A) (A) (A) (A) (A) (A) (A) (A) (A) (A) (A) (A)
                 (A) (A)
       Virtual   (A) (A) (A) (A) (A) (A) (A) (A) (A) (A) (A) (A)
                 (A) (A) (A) (A) (A) (A) (A) (A) (A) (A) (A) (A)
                 (A) (A) (A) (A) (A) (A) (A) (A) (A) (A) (A) (A)
                 (A) (A) (A) (A) (A) (A) (A) (A) (A) (A) (A) (A)
                 (A) (A) (A) (A) (A) (A) (A) (A) (A) (A) (A) (A)
                 (A) (A) (A) (A) (A) (A) (A) (A) (A) (A) (A) (A)
                 (A) (A) (A) (A) (A) (A) (A) (A) (A) (A) (A) (A)
                 (A) (A) (A) (A) (A) (A) (A) (A) (A) (A) (A) (A)
                 (A) (A) (A) (A) (A) (A) (A) (A) (A) (A) (A) (A)
                 (A) (A) (A) (A) (A) (A) (A) (A) (A) (A) (A) (A)
                 (A) (A) (A) (A) (A) (A) (A) (A) (A) (A) (A) (A)
                 (A) (A) (A) (A) (A) (A) (A) (A) (A) (A) (A) (A)
                 (A) (A) (A) (A) (A) (A) (A) (A) (A) (A) (A) (A)
                 (A) (A) (A) (A) (A) (A) (A) (A) (A) (A) (A) (A)
                 (A) (A) (A) (A) (A) (A) (A) (A) (A) (A) (A) (A)
                 (A) (A) (A) (A) (A) (A) (A) (A) (A) (A) (A) (A)
                 (A) (A) (A) (A) (A) (A) (A) (A) (A) (A) (A) (A)
                 (A) (A) (A) (A) (A) (A) (A) (A) (A) (A) (A) (A)
                 (A) (A) (A) (A) (A) (A) (A) (A) (A) (A) (A) (A)
                 (A) (A) (A) (A) (A) (A) (A) (A) (A) (A) (A) (A)
                 (A) (A) (A) (A) (A) (A) (A) (A) (A) (A) (A) (A)
                 (A) (A) (A) (A) (A) (A) (A) (A) (A) (A) (A) (A)
                 (A) (A) (A) (A) (A) (A) (A) (A) (A) (A) (A) (A)
                 (A) (A) (A) (A) (A) (A) (A) (A) (A) (A) (A) (A)
                 (A) (A) (A) (A) (A) (A) (A) (A) (A) (A) (A) (A)
                 (A) (A) (A) (A) (A) (A) (A) (A) (A) (A) (A) (A)
                 (A) (A) (A) (A) (A) (A) (A) (A) (A) (A) (A) (A)
                 (A) (A) (A) (A) (A) (A) (A) (A) (A) (A) (A) (A)
                 (A) (A) (A) (A) (A) (A) (A) (A) (A) (A) (A) (A)
                 (A) (A) (A) (A) (A) (A) (A) (A) (A) (A) (A) (A)
                 (A) (A) (A) (A) (A) (A) (A) (A) (A) (A) (A) (A)
                 (A) (A) (A) (A) (A) (A) (A) (A) (A) (A) (A) (A)
                 (A) (A) (A) (A) (A) (A) (A) (A) (A) (A) (A) (A)
                 (A) (A) (A) (A) (A) (A) (A) (A) (A) (A) (A) (A)
                 (A) (A) (A) (A) (A) (A) (A) (A) (A)
 The electronic state is 1-A.
 Alpha  occ. eigenvalues -- -485.43955 -63.39021 -57.21583 -57.21242 -57.21228
 Alpha  occ. eigenvalues --  -25.29660 -25.29467 -25.28892 -14.83780 -10.84692
 Alpha  occ. eigenvalues --   -9.06318  -6.89005  -6.87781  -6.87728  -2.92340
 Alpha  occ. eigenvalues --   -2.91902  -2.91859  -2.90692  -2.90691  -1.48358
 Alpha  occ. eigenvalues --   -1.39453  -1.38586  -1.08077  -0.88289  -0.80357
 Alpha  occ. eigenvalues --   -0.72125  -0.71173  -0.68969  -0.59737  -0.59031
 Alpha  occ. eigenvalues --   -0.56831  -0.55067  -0.54106  -0.53063  -0.51457
 Alpha  occ. eigenvalues --   -0.44904  -0.38356  -0.34956
 Alpha virt. eigenvalues --   -0.04622   0.00132   0.02207   0.02341   0.02780
 Alpha virt. eigenvalues --    0.05010   0.05595   0.05859   0.07379   0.07592
 Alpha virt. eigenvalues --    0.09720   0.10185   0.11190   0.13028   0.13318
 Alpha virt. eigenvalues --    0.14138   0.15364   0.15769   0.16554   0.18396
 Alpha virt. eigenvalues --    0.19315   0.19335   0.20451   0.20827   0.21278
 Alpha virt. eigenvalues --    0.22721   0.23466   0.24049   0.25513   0.26662
 Alpha virt. eigenvalues --    0.27040   0.28141   0.28574   0.29249   0.29640
 Alpha virt. eigenvalues --    0.30279   0.30519   0.30943   0.32409   0.34284
 Alpha virt. eigenvalues --    0.35636   0.37400   0.38816   0.40088   0.40722
 Alpha virt. eigenvalues --    0.42014   0.43078   0.44183   0.45502   0.49028
 Alpha virt. eigenvalues --    0.49345   0.50888   0.53037   0.54298   0.54934
 Alpha virt. eigenvalues --    0.55181   0.56890   0.57670   0.58513   0.60734
 Alpha virt. eigenvalues --    0.61708   0.62475   0.62622   0.64468   0.65007
 Alpha virt. eigenvalues --    0.66645   0.67401   0.68915   0.69260   0.70645
 Alpha virt. eigenvalues --    0.71852   0.72600   0.73546   0.74738   0.75265
 Alpha virt. eigenvalues --    0.75877   0.78008   0.80082   0.83497   0.84604
 Alpha virt. eigenvalues --    0.86428   0.88445   0.90736   0.92636   0.94475
 Alpha virt. eigenvalues --    0.97219   0.98629   1.00100   1.02733   1.04318
 Alpha virt. eigenvalues --    1.05492   1.07527   1.11504   1.12876   1.13575
 Alpha virt. eigenvalues --    1.15704   1.16855   1.19260   1.20737   1.23539
 Alpha virt. eigenvalues --    1.24195   1.26213   1.26246   1.28943   1.33484
 Alpha virt. eigenvalues --    1.35492   1.38224   1.41166   1.47349   1.53675
 Alpha virt. eigenvalues --    1.57717   1.58772   1.59729   1.64268   1.65719
 Alpha virt. eigenvalues --    1.67262   1.67882   1.68963   1.71533   1.74359
 Alpha virt. eigenvalues --    1.74700   1.77647   1.82584   1.83259   1.85557
 Alpha virt. eigenvalues --    1.86672   1.89128   1.92463   1.94396   1.95982
 Alpha virt. eigenvalues --    1.98366   1.99560   2.00066   2.01207   2.04054
 Alpha virt. eigenvalues --    2.07806   2.08724   2.10041   2.10528   2.12018
 Alpha virt. eigenvalues --    2.13768   2.16271   2.18190   2.19385   2.23673
 Alpha virt. eigenvalues --    2.28337   2.29703   2.32931   2.37043   2.39146
 Alpha virt. eigenvalues --    2.41047   2.47355   2.49713   2.53332   2.55719
 Alpha virt. eigenvalues --    2.57579   2.60928   2.63927   2.65179   2.67070
 Alpha virt. eigenvalues --    2.67810   2.68397   2.70596   2.71159   2.73197
 Alpha virt. eigenvalues --    2.74826   2.75570   2.78162   2.80291   2.81274
 Alpha virt. eigenvalues --    2.83908   2.87762   2.93269   2.94818   2.99545
 Alpha virt. eigenvalues --    3.02298   3.03574   3.05759   3.06661   3.10481
 Alpha virt. eigenvalues --    3.16019   3.21604   3.24120   3.27718   3.33672
 Alpha virt. eigenvalues --    3.34734   3.40557   3.49578   3.51803   3.60711
 Alpha virt. eigenvalues --    3.64672   3.74828   3.78961   3.85649   3.87621
 Alpha virt. eigenvalues --    3.93689   3.95145   3.98977   4.07012   4.11244
 Alpha virt. eigenvalues --    4.14373   4.17278   4.19139   4.20184   4.20450
 Alpha virt. eigenvalues --    4.20852   4.22046   4.27435   4.29568   4.32343
 Alpha virt. eigenvalues --    4.37758   4.45311   4.46380   4.56724   4.58601
 Alpha virt. eigenvalues --    4.62637   4.70763   4.74669   4.79532   4.82870
 Alpha virt. eigenvalues --    4.88663   4.91830   4.97834   5.07135   5.09348
 Alpha virt. eigenvalues --    5.10350   5.15579   5.17949   5.20054   5.27488
 Alpha virt. eigenvalues --    5.31780   5.36143   5.36523   5.39822   5.40523
 Alpha virt. eigenvalues --    5.44381   5.46554   5.55246   5.57130   5.59276
 Alpha virt. eigenvalues --    5.63237   5.67690   5.69416   5.71434   5.73314
 Alpha virt. eigenvalues --    5.78480   5.85350   5.86170   5.93464   5.97640
 Alpha virt. eigenvalues --    6.02663   6.03974   6.08544   6.11013   6.12950
 Alpha virt. eigenvalues --    6.17929   6.18444   6.22048   6.27303   6.33044
 Alpha virt. eigenvalues --    6.37367   6.43004   6.52540   6.59006   6.60021
 Alpha virt. eigenvalues --    6.61750   6.65530   6.68267   6.72004   6.77916
 Alpha virt. eigenvalues --    6.82175   6.88502   6.91442   6.96800   7.10369
 Alpha virt. eigenvalues --    7.13250   7.17829   7.18859   7.21622   7.24967
 Alpha virt. eigenvalues --    7.33606   7.34717   7.37432   7.43815   7.45134
 Alpha virt. eigenvalues --    7.52433   7.65050   7.66010   7.78746   7.80645
 Alpha virt. eigenvalues --    7.88669   7.95417   8.08600   8.15246   8.20115
 Alpha virt. eigenvalues --    8.29301   8.37145   8.43178   8.54271   8.63836
 Alpha virt. eigenvalues --    8.70869   8.80807   8.90723   9.02151   9.12022
 Alpha virt. eigenvalues --    9.13987   9.22565   9.24137   9.29239   9.34804
 Alpha virt. eigenvalues --    9.42290   9.48971   9.49850   9.53180   9.55854
 Alpha virt. eigenvalues --    9.60420   9.61674   9.68961   9.88906   9.92445
 Alpha virt. eigenvalues --    9.97323  10.48050  10.86713  11.22944  11.26575
 Alpha virt. eigenvalues --   11.29081  11.29301  11.29515  11.29657  11.29822
 Alpha virt. eigenvalues --   11.30331  11.30581  11.31982  11.33564  11.35108
 Alpha virt. eigenvalues --   11.36950  11.38438  11.43754  11.47551  11.53099
 Alpha virt. eigenvalues --   11.54484  11.55951  11.66484  11.68317  11.90925
 Alpha virt. eigenvalues --   11.93721  11.98901  12.03824  12.04950  12.13389
 Alpha virt. eigenvalues --   12.16224  12.21711  12.40916  13.68068  13.76096
 Alpha virt. eigenvalues --   14.27177  14.40273  14.41789  14.42798  14.45270
 Alpha virt. eigenvalues --   14.45816  14.49461  14.55331  14.62592  14.69460
 Alpha virt. eigenvalues --   14.72790  14.83683  14.84908  14.89448  15.11364
 Alpha virt. eigenvalues --   15.12200  15.30283  15.39514  15.40528  15.41719
 Alpha virt. eigenvalues --   15.44211  15.46671  15.51532  15.88441  15.89326
 Alpha virt. eigenvalues --   15.94428  16.00565  16.02082  16.03357  16.15799
 Alpha virt. eigenvalues --   16.16323  16.19316  16.22305  16.42525  16.45196
 Alpha virt. eigenvalues --   16.62805  16.64246  16.65466  16.69825  16.73837
 Alpha virt. eigenvalues --   16.78503  28.41620  29.40043  34.36627  34.36977
 Alpha virt. eigenvalues --   34.38484  34.39052  34.40280  34.42051  34.47238
 Alpha virt. eigenvalues --   37.79440  54.76582  54.78651  55.19274  95.15558
 Alpha virt. eigenvalues --  145.78477 195.32763 283.76823 283.79460 284.29999
 Alpha virt. eigenvalues --  322.234331817.75953
          Condensed to atoms (all electrons):
               1          2          3          4          5          6
     1  C    4.197562   0.187715   0.043571   0.259290   0.246580   0.247955
     2  N    0.187715   7.230308   0.103298  -0.078156  -0.053974  -0.048224
     3  H    0.043571   0.103298   0.498598   0.003819  -0.001785   0.001951
     4  F    0.259290  -0.078156   0.003819   9.202646  -0.063694  -0.062458
     5  F    0.246580  -0.053974  -0.001785  -0.063694   9.215113  -0.064206
     6  F    0.247955  -0.048224   0.001951  -0.062458  -0.064206   9.183122
     7  Br  -0.024082   0.127905  -0.019396   0.002589  -0.005255  -0.005032
               7
     1  C   -0.024082
     2  N    0.127905
     3  H   -0.019396
     4  F    0.002589
     5  F   -0.005255
     6  F   -0.005032
     7  Br  34.875829
 Mulliken charges:
               1
     1  C    0.841410
     2  N   -0.468872
     3  H    0.369943
     4  F   -0.264036
     5  F   -0.272779
     6  F   -0.253108
     7  Br   0.047442
 Sum of Mulliken charges =  -0.00000
 Mulliken charges with hydrogens summed into heavy atoms:
               1
     1  C    0.841410
     2  N   -0.098929
     4  F   -0.264036
     5  F   -0.272779
     6  F   -0.253108
     7  Br   0.047442
 Electronic spatial extent (au):  <R**2>=            880.0507
 Charge=             -0.0000 electrons
 Dipole moment (field-independent basis, Debye):
    X=             -1.1063    Y=              1.2011    Z=              0.7483  Tot=              1.7963
 Quadrupole moment (field-independent basis, Debye-Ang):
   XX=            -45.2134   YY=            -42.8897   ZZ=            -46.7871
   XY=              0.9914   XZ=             -0.1879   YZ=              1.7209
 Traceless Quadrupole moment (field-independent basis, Debye-Ang):
   XX=             -0.2500   YY=              2.0737   ZZ=             -1.8237
   XY=              0.9914   XZ=             -0.1879   YZ=              1.7209
 Octapole moment (field-independent basis, Debye-Ang**2):
  XXX=            -25.3893  YYY=              0.9949  ZZZ=              0.9620  XYY=             -5.5195
  XXY=             -6.0410  XXZ=              0.8724  XZZ=             -5.0736  YZZ=             -1.0436
  YYZ=              3.6678  XYZ=              0.6277
 Hexadecapole moment (field-independent basis, Debye-Ang**3):
 XXXX=           -600.6252 YYYY=           -118.6215 ZZZZ=           -115.3726 XXXY=              3.4200
 XXXZ=             -1.7549 YYYX=              1.1054 YYYZ=              6.0085 ZZZX=             -0.7734
 ZZZY=              2.7622 XXYY=           -125.2316 XXZZ=           -124.4683 YYZZ=            -41.0537
 XXYZ=              0.1358 YYXZ=              1.0976 ZZXY=              1.0903
 N-N= 4.576057429234D+02 E-N=-7.998238450539D+03  KE= 2.960765397193D+03
 PrsmSu:  requested number of processors reduced to:  21 ShMem   1 Linda.
 No NMR shielding tensors so no spin-rotation constants.
 Leave Link  601 at Sat Apr 17 20:48:53 2021, MaxMem=   104857600 cpu:             306.1 elap:               6.7
 (Enter /s/ls4/users/knvvv/bin/g16sse/l801.exe)
 DoSCS=F DFT=T ScalE2(SS,OS)=  1.000000  1.000000
 Range of M.O.s used for correlation:     1   455
 NBasis=   455 NAE=    38 NBE=    38 NFC=     0 NFV=     0
 NROrb=    455 NOA=    38 NOB=    38 NVA=   417 NVB=   417

 **** Warning!!: The largest alpha MO coefficient is  0.40238152D+02

 Leave Link  801 at Sat Apr 17 20:48:53 2021, MaxMem=   104857600 cpu:               3.9 elap:               0.1
 (Enter /s/ls4/users/knvvv/bin/g16sse/l914.exe)
 RHF ground state
 Doing stability rather than CIS.
 Two-electron integrals replicated using symmetry.
 MDV=   104857600 DFT=T DoStab=T Mixed=T DoRPA=F DoScal=F NonHer=F
 Making orbital integer symmetry assigments:
 Orbital symmetries:
       Occupied  (A) (A) (A) (A) (A) (A) (A) (A) (A) (A) (A) (A)
                 (A) (A) (A) (A) (A) (A) (A) (A) (A) (A) (A) (A)
                 (A) (A) (A) (A) (A) (A) (A) (A) (A) (A) (A) (A)
                 (A) (A)
       Virtual   (A) (A) (A) (A) (A) (A) (A) (A) (A) (A) (A) (A)
                 (A) (A) (A) (A) (A) (A) (A) (A) (A) (A) (A) (A)
                 (A) (A) (A) (A) (A) (A) (A) (A) (A) (A) (A) (A)
                 (A) (A) (A) (A) (A) (A) (A) (A) (A) (A) (A) (A)
                 (A) (A) (A) (A) (A) (A) (A) (A) (A) (A) (A) (A)
                 (A) (A) (A) (A) (A) (A) (A) (A) (A) (A) (A) (A)
                 (A) (A) (A) (A) (A) (A) (A) (A) (A) (A) (A) (A)
                 (A) (A) (A) (A) (A) (A) (A) (A) (A) (A) (A) (A)
                 (A) (A) (A) (A) (A) (A) (A) (A) (A) (A) (A) (A)
                 (A) (A) (A) (A) (A) (A) (A) (A) (A) (A) (A) (A)
                 (A) (A) (A) (A) (A) (A) (A) (A) (A) (A) (A) (A)
                 (A) (A) (A) (A) (A) (A) (A) (A) (A) (A) (A) (A)
                 (A) (A) (A) (A) (A) (A) (A) (A) (A) (A) (A) (A)
                 (A) (A) (A) (A) (A) (A) (A) (A) (A) (A) (A) (A)
                 (A) (A) (A) (A) (A) (A) (A) (A) (A) (A) (A) (A)
                 (A) (A) (A) (A) (A) (A) (A) (A) (A) (A) (A) (A)
                 (A) (A) (A) (A) (A) (A) (A) (A) (A) (A) (A) (A)
                 (A) (A) (A) (A) (A) (A) (A) (A) (A) (A) (A) (A)
                 (A) (A) (A) (A) (A) (A) (A) (A) (A) (A) (A) (A)
                 (A) (A) (A) (A) (A) (A) (A) (A) (A) (A) (A) (A)
                 (A) (A) (A) (A) (A) (A) (A) (A) (A) (A) (A) (A)
                 (A) (A) (A) (A) (A) (A) (A) (A) (A) (A) (A) (A)
                 (A) (A) (A) (A) (A) (A) (A) (A) (A) (A) (A) (A)
                 (A) (A) (A) (A) (A) (A) (A) (A) (A) (A) (A) (A)
                 (A) (A) (A) (A) (A) (A) (A) (A) (A) (A) (A) (A)
                 (A) (A) (A) (A) (A) (A) (A) (A) (A) (A) (A) (A)
                 (A) (A) (A) (A) (A) (A) (A) (A) (A) (A) (A) (A)
                 (A) (A) (A) (A) (A) (A) (A) (A) (A) (A) (A) (A)
                 (A) (A) (A) (A) (A) (A) (A) (A) (A) (A) (A) (A)
                 (A) (A) (A) (A) (A) (A) (A) (A) (A) (A) (A) (A)
                 (A) (A) (A) (A) (A) (A) (A) (A) (A) (A) (A) (A)
                 (A) (A) (A) (A) (A) (A) (A) (A) (A) (A) (A) (A)
                 (A) (A) (A) (A) (A) (A) (A) (A) (A) (A) (A) (A)
                 (A) (A) (A) (A) (A) (A) (A) (A) (A) (A) (A) (A)
                 (A) (A) (A) (A) (A) (A) (A) (A) (A)
    24 initial guesses have been made.
 Convergence on wavefunction:    0.001000000000000
 Davidson Disk Diagonalization:  ConvIn= 1.00D-03 SkipCon=T Conv= 1.00D-03.
 Max sub-space:  2000 roots to seek:    24 dimension of matrix:        31692
 Iteration     1 Dimension    24 NMult     0 NNew     24
 Estimated number of processors is:   16
 CISAX will form     1 AO SS matrices at one time.
 NMat=     1 NSing=     1 JSym2X= 0.
 FoFJK:  IHMeth= 1 ICntrl=       0 DoSepK=F KAlg= 0 I1Cent=           0 FoldK=F
 IRaf= 930000000 NMat=       1 IRICut=       1 DoRegI=T DoRafI=F ISym2E= 0 IDoP0=0 IntGTp=1.
 FoFCou: FMM=F IPFlag=           0 FMFlag=      100000 FMFlg1=           0
         NFxFlg=           0 DoJE=F BraDBF=F KetDBF=F FulRan=T
         wScrn=  0.000000 ICntrl=         0 IOpCl=  0 I1Cent=           0 NGrid=           0
         NMat0=    1 NMatS0=      1 NMatT0=    0 NMatD0=    1 NMtDS0=    0 NMtDT0=    0
 Symmetry not used in FoFCou.
 CoulSu:  requested number of processors reduced to:  20 ShMem   1 Linda.
 NMat=     1 NSing=     1 JSym2X= 0.
 CoulSu:  requested number of processors reduced to:  20 ShMem   1 Linda.
 NMat=     1 NSing=     1 JSym2X= 0.
 CoulSu:  requested number of processors reduced to:  20 ShMem   1 Linda.
 NMat=     1 NSing=     1 JSym2X= 0.
 CoulSu:  requested number of processors reduced to:  20 ShMem   1 Linda.
 NMat=     1 NSing=     1 JSym2X= 0.
 CoulSu:  requested number of processors reduced to:  20 ShMem   1 Linda.
 NMat=     1 NSing=     1 JSym2X= 0.
 CoulSu:  requested number of processors reduced to:  20 ShMem   1 Linda.
 NMat=     1 NSing=     1 JSym2X= 0.
 CoulSu:  requested number of processors reduced to:  20 ShMem   1 Linda.
 NMat=     1 NSing=     1 JSym2X= 0.
 CoulSu:  requested number of processors reduced to:  20 ShMem   1 Linda.
 NMat=     1 NSing=     1 JSym2X= 0.
 CoulSu:  requested number of processors reduced to:  20 ShMem   1 Linda.
 NMat=     1 NSing=     1 JSym2X= 0.
 CoulSu:  requested number of processors reduced to:  20 ShMem   1 Linda.
 NMat=     1 NSing=     1 JSym2X= 0.
 CoulSu:  requested number of processors reduced to:  20 ShMem   1 Linda.
 NMat=     1 NSing=     1 JSym2X= 0.
 CoulSu:  requested number of processors reduced to:  20 ShMem   1 Linda.
 NMat=     1 NSing=     0 JSym2X= 0.
 CoulSu:  requested number of processors reduced to:  20 ShMem   1 Linda.
 NMat=     1 NSing=     0 JSym2X= 0.
 CoulSu:  requested number of processors reduced to:  20 ShMem   1 Linda.
 NMat=     1 NSing=     0 JSym2X= 0.
 CoulSu:  requested number of processors reduced to:  20 ShMem   1 Linda.
 NMat=     1 NSing=     0 JSym2X= 0.
 CoulSu:  requested number of processors reduced to:  20 ShMem   1 Linda.
 NMat=     1 NSing=     0 JSym2X= 0.
 CoulSu:  requested number of processors reduced to:  20 ShMem   1 Linda.
 NMat=     1 NSing=     0 JSym2X= 0.
 CoulSu:  requested number of processors reduced to:  20 ShMem   1 Linda.
 NMat=     1 NSing=     0 JSym2X= 0.
 CoulSu:  requested number of processors reduced to:  20 ShMem   1 Linda.
 NMat=     1 NSing=     0 JSym2X= 0.
 CoulSu:  requested number of processors reduced to:  20 ShMem   1 Linda.
 NMat=     1 NSing=     0 JSym2X= 0.
 CoulSu:  requested number of processors reduced to:  20 ShMem   1 Linda.
 NMat=     1 NSing=     0 JSym2X= 0.
 CoulSu:  requested number of processors reduced to:  20 ShMem   1 Linda.
 NMat=     1 NSing=     0 JSym2X= 0.
 CoulSu:  requested number of processors reduced to:  20 ShMem   1 Linda.
 NMat=     1 NSing=     0 JSym2X= 0.
 CoulSu:  requested number of processors reduced to:  20 ShMem   1 Linda.
 New state      1 was old state      2
 Excitation Energies [eV] at current iteration:
 Root      1 :     3.495903079270712
 Root      2 :     4.595035852088607
 Root      3 :     5.287742849356980
 Root      4 :     6.257320382225065
 Root      5 :     6.339295519844390
 Root      6 :     7.296446689904241
 Root      7 :     7.334286086114110
 Root      8 :     8.121140116281284
 Root      9 :     8.214382926684918
 Root     10 :     8.340516391301872
 Root     11 :     8.344837142436344
 Root     12 :     8.381416532247114
 Root     13 :     8.417006071368116
 Root     14 :     8.426952228765199
 Root     15 :     8.500738815522546
 Root     16 :     8.795661558403825
 Root     17 :     9.041864037269823
 Root     18 :     9.156593209470438
 Root     19 :     9.162092059052116
 Root     20 :     9.186429447811365
 Root     21 :     9.277955306303550
 Root     22 :     9.318271732660344
 Root     23 :     9.324209681769540
 Root     24 :     9.546280120370920
 Iteration     2 Dimension    48 NMult    24 NNew     24
 Estimated number of processors is:   16
 CISAX will form     1 AO SS matrices at one time.
 NMat=     1 NSing=     1 JSym2X= 0.
 CoulSu:  requested number of processors reduced to:  20 ShMem   1 Linda.
 NMat=     1 NSing=     1 JSym2X= 0.
 CoulSu:  requested number of processors reduced to:  20 ShMem   1 Linda.
 NMat=     1 NSing=     1 JSym2X= 0.
 CoulSu:  requested number of processors reduced to:  20 ShMem   1 Linda.
 NMat=     1 NSing=     1 JSym2X= 0.
 CoulSu:  requested number of processors reduced to:  20 ShMem   1 Linda.
 NMat=     1 NSing=     1 JSym2X= 0.
 CoulSu:  requested number of processors reduced to:  20 ShMem   1 Linda.
 NMat=     1 NSing=     1 JSym2X= 0.
 CoulSu:  requested number of processors reduced to:  20 ShMem   1 Linda.
 NMat=     1 NSing=     1 JSym2X= 0.
 CoulSu:  requested number of processors reduced to:  20 ShMem   1 Linda.
 NMat=     1 NSing=     1 JSym2X= 0.
 CoulSu:  requested number of processors reduced to:  20 ShMem   1 Linda.
 NMat=     1 NSing=     1 JSym2X= 0.
 CoulSu:  requested number of processors reduced to:  20 ShMem   1 Linda.
 NMat=     1 NSing=     1 JSym2X= 0.
 CoulSu:  requested number of processors reduced to:  20 ShMem   1 Linda.
 NMat=     1 NSing=     1 JSym2X= 0.
 CoulSu:  requested number of processors reduced to:  20 ShMem   1 Linda.
 NMat=     1 NSing=     1 JSym2X= 0.
 CoulSu:  requested number of processors reduced to:  20 ShMem   1 Linda.
 NMat=     1 NSing=     0 JSym2X= 0.
 CoulSu:  requested number of processors reduced to:  20 ShMem   1 Linda.
 NMat=     1 NSing=     0 JSym2X= 0.
 CoulSu:  requested number of processors reduced to:  20 ShMem   1 Linda.
 NMat=     1 NSing=     0 JSym2X= 0.
 CoulSu:  requested number of processors reduced to:  20 ShMem   1 Linda.
 NMat=     1 NSing=     0 JSym2X= 0.
 CoulSu:  requested number of processors reduced to:  20 ShMem   1 Linda.
 NMat=     1 NSing=     0 JSym2X= 0.
 CoulSu:  requested number of processors reduced to:  20 ShMem   1 Linda.
 NMat=     1 NSing=     0 JSym2X= 0.
 CoulSu:  requested number of processors reduced to:  20 ShMem   1 Linda.
 NMat=     1 NSing=     0 JSym2X= 0.
 CoulSu:  requested number of processors reduced to:  20 ShMem   1 Linda.
 NMat=     1 NSing=     0 JSym2X= 0.
 CoulSu:  requested number of processors reduced to:  20 ShMem   1 Linda.
 NMat=     1 NSing=     0 JSym2X= 0.
 CoulSu:  requested number of processors reduced to:  20 ShMem   1 Linda.
 NMat=     1 NSing=     0 JSym2X= 0.
 CoulSu:  requested number of processors reduced to:  20 ShMem   1 Linda.
 NMat=     1 NSing=     0 JSym2X= 0.
 CoulSu:  requested number of processors reduced to:  20 ShMem   1 Linda.
 NMat=     1 NSing=     0 JSym2X= 0.
 CoulSu:  requested number of processors reduced to:  20 ShMem   1 Linda.
 Root      1 not converged, maximum delta is    0.042390357936198
 Excitation Energies [eV] at current iteration:
 Root      1 :     3.164110508554033   Change is   -0.331792570716680
 Root      2 :     4.193382135731728   Change is   -0.401653716356879
 Root      3 :     4.723222731618209   Change is   -0.564520117738770
 Root      4 :     5.494005521928268   Change is   -0.845289997916122
 Root      5 :     5.736916327334455   Change is   -0.520404054890610
 Root      6 :     6.976911557398845   Change is   -0.319535132505397
 Root      7 :     7.168506645316105   Change is   -0.165779440798006
 Root      8 :     7.683832522647798   Change is   -1.111829035756028
 Root      9 :     7.936847252656936   Change is   -0.184292863624348
 Root     10 :     8.064845582427340   Change is   -0.275670808874532
 Root     11 :     8.104021753932654   Change is   -0.110361172752264
 Root     12 :     8.225097057622454   Change is   -0.156319474624661
 Root     13 :     8.241048707764067   Change is   -0.103788434672277
 Root     14 :     8.319628670963658   Change is   -0.097377400404459
 Root     15 :     8.349577331693462   Change is   -0.077374897071737
 Root     16 :     8.447390447215080   Change is   -0.053348368307467
 Root     17 :     8.899281160064188   Change is   -0.142582877205634
 Root     18 :     8.956652037113598   Change is   -0.199941172356840
 Root     19 :     9.012649645710081   Change is   -0.149442413342035
 Root     20 :     9.034628471998847   Change is   -0.151800975812518
 Root     21 :     9.060514919563422   Change is   -0.217440386740128
 Root     22 :     9.173756195968773   Change is   -0.150453485800768
 Root     23 :     9.197372009306655   Change is   -0.120899723353690
 Root     24 :     9.342814747325319   Change is   -0.203465373045600
 Iteration     3 Dimension    54 NMult    48 NNew      6
 Estimated number of processors is:   16
 CISAX will form     1 AO SS matrices at one time.
 NMat=     1 NSing=     1 JSym2X= 0.
 CoulSu:  requested number of processors reduced to:  20 ShMem   1 Linda.
 NMat=     1 NSing=     1 JSym2X= 0.
 CoulSu:  requested number of processors reduced to:  20 ShMem   1 Linda.
 NMat=     1 NSing=     1 JSym2X= 0.
 CoulSu:  requested number of processors reduced to:  20 ShMem   1 Linda.
 NMat=     1 NSing=     0 JSym2X= 0.
 CoulSu:  requested number of processors reduced to:  20 ShMem   1 Linda.
 NMat=     1 NSing=     0 JSym2X= 0.
 CoulSu:  requested number of processors reduced to:  20 ShMem   1 Linda.
 NMat=     1 NSing=     0 JSym2X= 0.
 CoulSu:  requested number of processors reduced to:  20 ShMem   1 Linda.
 Root      1 not converged, maximum delta is    0.020941922650704
 Excitation Energies [eV] at current iteration:
 Root      1 :     3.151976939158065   Change is   -0.012133569395968
 Root      2 :     4.185561349178267   Change is   -0.007820786553461
 Root      3 :     4.675318828205167   Change is   -0.047903903413043
 Root      4 :     5.352711093971496   Change is   -0.141294427956772
 Root      5 :     5.678195238836925   Change is   -0.058721088497530
 Root      6 :     7.156237606606690   Change is   -0.012269038709415
 Iteration     4 Dimension    60 NMult    54 NNew      6
 Estimated number of processors is:   16
 CISAX will form     1 AO SS matrices at one time.
 NMat=     1 NSing=     1 JSym2X= 0.
 CoulSu:  requested number of processors reduced to:  20 ShMem   1 Linda.
 NMat=     1 NSing=     1 JSym2X= 0.
 CoulSu:  requested number of processors reduced to:  20 ShMem   1 Linda.
 NMat=     1 NSing=     1 JSym2X= 0.
 CoulSu:  requested number of processors reduced to:  20 ShMem   1 Linda.
 NMat=     1 NSing=     0 JSym2X= 0.
 CoulSu:  requested number of processors reduced to:  20 ShMem   1 Linda.
 NMat=     1 NSing=     0 JSym2X= 0.
 CoulSu:  requested number of processors reduced to:  20 ShMem   1 Linda.
 NMat=     1 NSing=     0 JSym2X= 0.
 CoulSu:  requested number of processors reduced to:  20 ShMem   1 Linda.
 Root      1 not converged, maximum delta is    0.005995719992410
 Excitation Energies [eV] at current iteration:
 Root      1 :     3.150513655108357   Change is   -0.001463284049708
 Root      2 :     4.185253109278842   Change is   -0.000308239899425
 Root      3 :     4.671312138479605   Change is   -0.004006689725562
 Root      4 :     5.282366387939484   Change is   -0.070344706032013
 Root      5 :     5.671872985728163   Change is   -0.006322253108762
 Root      6 :     7.153727006112335   Change is   -0.002510600494355
 Iteration     5 Dimension    66 NMult    60 NNew      6
 Estimated number of processors is:   16
 CISAX will form     1 AO SS matrices at one time.
 NMat=     1 NSing=     1 JSym2X= 0.
 CoulSu:  requested number of processors reduced to:  20 ShMem   1 Linda.
 NMat=     1 NSing=     1 JSym2X= 0.
 CoulSu:  requested number of processors reduced to:  20 ShMem   1 Linda.
 NMat=     1 NSing=     1 JSym2X= 0.
 CoulSu:  requested number of processors reduced to:  20 ShMem   1 Linda.
 NMat=     1 NSing=     0 JSym2X= 0.
 CoulSu:  requested number of processors reduced to:  20 ShMem   1 Linda.
 NMat=     1 NSing=     0 JSym2X= 0.
 CoulSu:  requested number of processors reduced to:  20 ShMem   1 Linda.
 NMat=     1 NSing=     0 JSym2X= 0.
 CoulSu:  requested number of processors reduced to:  20 ShMem   1 Linda.
 Root      1 has converged.
 Excitation Energies [eV] at current iteration:
 Root      1 :     3.150446130620810   Change is   -0.000067524487547
 Root      2 :     4.185239629057018   Change is   -0.000013480221824
 Root      3 :     4.670564342175041   Change is   -0.000747796304565
 Root      4 :     5.274805643537717   Change is   -0.007560744401767
 Root      5 :     5.670781302937149   Change is   -0.001091682791014
 Root      6 :     7.153111153929305   Change is   -0.000615852183030
 Convergence achieved on expansion vectors.
 ***********************************************************************
 Stability analysis using <AA,BB:AA,BB> singles matrix:
 ***********************************************************************
 1PDM for each excited state written to RWF  633
 Ground to excited state transition densities written to RWF  633

 Eigenvectors of the stability matrix:
 
 Eigenvector   1:      Triplet-A    Eigenvalue= 0.1157768  <S**2>=2.000
      38 -> 39         0.67292
      38 -> 43         0.12159
 The wavefunction is stable under the perturbations considered.
 Leave Link  914 at Sat Apr 17 21:13:26 2021, MaxMem=   104857600 cpu:           50435.9 elap:            1472.4
 (Enter /s/ls4/users/knvvv/bin/g16sse/l508.exe)
 The wavefunction is already stable.
 Leave Link  508 at Sat Apr 17 21:13:26 2021, MaxMem=   104857600 cpu:               2.2 elap:               0.1
 (Enter /s/ls4/users/knvvv/bin/g16sse/l601.exe)
 Copying SCF densities to generalized density rwf, IOpCl= 0 IROHF=0.

 **********************************************************************

            Population analysis using the SCF density.

 **********************************************************************

 Orbital symmetries:
       Occupied  (A) (A) (A) (A) (A) (A) (A) (A) (A) (A) (A) (A)
                 (A) (A) (A) (A) (A) (A) (A) (A) (A) (A) (A) (A)
                 (A) (A) (A) (A) (A) (A) (A) (A) (A) (A) (A) (A)
                 (A) (A)
       Virtual   (A) (A) (A) (A) (A) (A) (A) (A) (A) (A) (A) (A)
                 (A) (A) (A) (A) (A) (A) (A) (A) (A) (A) (A) (A)
                 (A) (A) (A) (A) (A) (A) (A) (A) (A) (A) (A) (A)
                 (A) (A) (A) (A) (A) (A) (A) (A) (A) (A) (A) (A)
                 (A) (A) (A) (A) (A) (A) (A) (A) (A) (A) (A) (A)
                 (A) (A) (A) (A) (A) (A) (A) (A) (A) (A) (A) (A)
                 (A) (A) (A) (A) (A) (A) (A) (A) (A) (A) (A) (A)
                 (A) (A) (A) (A) (A) (A) (A) (A) (A) (A) (A) (A)
                 (A) (A) (A) (A) (A) (A) (A) (A) (A) (A) (A) (A)
                 (A) (A) (A) (A) (A) (A) (A) (A) (A) (A) (A) (A)
                 (A) (A) (A) (A) (A) (A) (A) (A) (A) (A) (A) (A)
                 (A) (A) (A) (A) (A) (A) (A) (A) (A) (A) (A) (A)
                 (A) (A) (A) (A) (A) (A) (A) (A) (A) (A) (A) (A)
                 (A) (A) (A) (A) (A) (A) (A) (A) (A) (A) (A) (A)
                 (A) (A) (A) (A) (A) (A) (A) (A) (A) (A) (A) (A)
                 (A) (A) (A) (A) (A) (A) (A) (A) (A) (A) (A) (A)
                 (A) (A) (A) (A) (A) (A) (A) (A) (A) (A) (A) (A)
                 (A) (A) (A) (A) (A) (A) (A) (A) (A) (A) (A) (A)
                 (A) (A) (A) (A) (A) (A) (A) (A) (A) (A) (A) (A)
                 (A) (A) (A) (A) (A) (A) (A) (A) (A) (A) (A) (A)
                 (A) (A) (A) (A) (A) (A) (A) (A) (A) (A) (A) (A)
                 (A) (A) (A) (A) (A) (A) (A) (A) (A) (A) (A) (A)
                 (A) (A) (A) (A) (A) (A) (A) (A) (A) (A) (A) (A)
                 (A) (A) (A) (A) (A) (A) (A) (A) (A) (A) (A) (A)
                 (A) (A) (A) (A) (A) (A) (A) (A) (A) (A) (A) (A)
                 (A) (A) (A) (A) (A) (A) (A) (A) (A) (A) (A) (A)
                 (A) (A) (A) (A) (A) (A) (A) (A) (A) (A) (A) (A)
                 (A) (A) (A) (A) (A) (A) (A) (A) (A) (A) (A) (A)
                 (A) (A) (A) (A) (A) (A) (A) (A) (A) (A) (A) (A)
                 (A) (A) (A) (A) (A) (A) (A) (A) (A) (A) (A) (A)
                 (A) (A) (A) (A) (A) (A) (A) (A) (A) (A) (A) (A)
                 (A) (A) (A) (A) (A) (A) (A) (A) (A) (A) (A) (A)
                 (A) (A) (A) (A) (A) (A) (A) (A) (A) (A) (A) (A)
                 (A) (A) (A) (A) (A) (A) (A) (A) (A) (A) (A) (A)
                 (A) (A) (A) (A) (A) (A) (A) (A) (A)
 The electronic state is 1-A.
 Alpha  occ. eigenvalues -- -485.43955 -63.39021 -57.21583 -57.21242 -57.21228
 Alpha  occ. eigenvalues --  -25.29660 -25.29467 -25.28892 -14.83780 -10.84692
 Alpha  occ. eigenvalues --   -9.06318  -6.89005  -6.87781  -6.87728  -2.92340
 Alpha  occ. eigenvalues --   -2.91902  -2.91859  -2.90692  -2.90691  -1.48358
 Alpha  occ. eigenvalues --   -1.39453  -1.38586  -1.08077  -0.88289  -0.80357
 Alpha  occ. eigenvalues --   -0.72125  -0.71173  -0.68969  -0.59737  -0.59031
 Alpha  occ. eigenvalues --   -0.56831  -0.55067  -0.54106  -0.53063  -0.51457
 Alpha  occ. eigenvalues --   -0.44904  -0.38356  -0.34956
 Alpha virt. eigenvalues --   -0.04622   0.00132   0.02207   0.02341   0.02780
 Alpha virt. eigenvalues --    0.05010   0.05595   0.05859   0.07379   0.07592
 Alpha virt. eigenvalues --    0.09720   0.10185   0.11190   0.13028   0.13318
 Alpha virt. eigenvalues --    0.14138   0.15364   0.15769   0.16554   0.18396
 Alpha virt. eigenvalues --    0.19315   0.19335   0.20451   0.20827   0.21278
 Alpha virt. eigenvalues --    0.22721   0.23466   0.24049   0.25513   0.26662
 Alpha virt. eigenvalues --    0.27040   0.28141   0.28574   0.29249   0.29640
 Alpha virt. eigenvalues --    0.30279   0.30519   0.30943   0.32409   0.34284
 Alpha virt. eigenvalues --    0.35636   0.37400   0.38816   0.40088   0.40722
 Alpha virt. eigenvalues --    0.42014   0.43078   0.44183   0.45502   0.49028
 Alpha virt. eigenvalues --    0.49345   0.50888   0.53037   0.54298   0.54934
 Alpha virt. eigenvalues --    0.55181   0.56890   0.57670   0.58513   0.60734
 Alpha virt. eigenvalues --    0.61708   0.62475   0.62622   0.64468   0.65007
 Alpha virt. eigenvalues --    0.66645   0.67401   0.68915   0.69260   0.70645
 Alpha virt. eigenvalues --    0.71852   0.72600   0.73546   0.74738   0.75265
 Alpha virt. eigenvalues --    0.75877   0.78008   0.80082   0.83497   0.84604
 Alpha virt. eigenvalues --    0.86428   0.88445   0.90736   0.92636   0.94475
 Alpha virt. eigenvalues --    0.97219   0.98629   1.00100   1.02733   1.04318
 Alpha virt. eigenvalues --    1.05492   1.07527   1.11504   1.12876   1.13575
 Alpha virt. eigenvalues --    1.15704   1.16855   1.19260   1.20737   1.23539
 Alpha virt. eigenvalues --    1.24195   1.26213   1.26246   1.28943   1.33484
 Alpha virt. eigenvalues --    1.35492   1.38224   1.41166   1.47349   1.53675
 Alpha virt. eigenvalues --    1.57717   1.58772   1.59729   1.64268   1.65719
 Alpha virt. eigenvalues --    1.67262   1.67882   1.68963   1.71533   1.74359
 Alpha virt. eigenvalues --    1.74700   1.77647   1.82584   1.83259   1.85557
 Alpha virt. eigenvalues --    1.86672   1.89128   1.92463   1.94396   1.95982
 Alpha virt. eigenvalues --    1.98366   1.99560   2.00066   2.01207   2.04054
 Alpha virt. eigenvalues --    2.07806   2.08724   2.10041   2.10528   2.12018
 Alpha virt. eigenvalues --    2.13768   2.16271   2.18190   2.19385   2.23673
 Alpha virt. eigenvalues --    2.28337   2.29703   2.32931   2.37043   2.39146
 Alpha virt. eigenvalues --    2.41047   2.47355   2.49713   2.53332   2.55719
 Alpha virt. eigenvalues --    2.57579   2.60928   2.63927   2.65179   2.67070
 Alpha virt. eigenvalues --    2.67810   2.68397   2.70596   2.71159   2.73197
 Alpha virt. eigenvalues --    2.74826   2.75570   2.78162   2.80291   2.81274
 Alpha virt. eigenvalues --    2.83908   2.87762   2.93269   2.94818   2.99545
 Alpha virt. eigenvalues --    3.02298   3.03574   3.05759   3.06661   3.10481
 Alpha virt. eigenvalues --    3.16019   3.21604   3.24120   3.27718   3.33672
 Alpha virt. eigenvalues --    3.34734   3.40557   3.49578   3.51803   3.60711
 Alpha virt. eigenvalues --    3.64672   3.74828   3.78961   3.85649   3.87621
 Alpha virt. eigenvalues --    3.93689   3.95145   3.98977   4.07012   4.11244
 Alpha virt. eigenvalues --    4.14373   4.17278   4.19139   4.20184   4.20450
 Alpha virt. eigenvalues --    4.20852   4.22046   4.27435   4.29568   4.32343
 Alpha virt. eigenvalues --    4.37758   4.45311   4.46380   4.56724   4.58601
 Alpha virt. eigenvalues --    4.62637   4.70763   4.74669   4.79532   4.82870
 Alpha virt. eigenvalues --    4.88663   4.91830   4.97834   5.07135   5.09348
 Alpha virt. eigenvalues --    5.10350   5.15579   5.17949   5.20054   5.27488
 Alpha virt. eigenvalues --    5.31780   5.36143   5.36523   5.39822   5.40523
 Alpha virt. eigenvalues --    5.44381   5.46554   5.55246   5.57130   5.59276
 Alpha virt. eigenvalues --    5.63237   5.67690   5.69416   5.71434   5.73314
 Alpha virt. eigenvalues --    5.78480   5.85350   5.86170   5.93464   5.97640
 Alpha virt. eigenvalues --    6.02663   6.03974   6.08544   6.11013   6.12950
 Alpha virt. eigenvalues --    6.17929   6.18444   6.22048   6.27303   6.33044
 Alpha virt. eigenvalues --    6.37367   6.43004   6.52540   6.59006   6.60021
 Alpha virt. eigenvalues --    6.61750   6.65530   6.68267   6.72004   6.77916
 Alpha virt. eigenvalues --    6.82175   6.88502   6.91442   6.96800   7.10369
 Alpha virt. eigenvalues --    7.13250   7.17829   7.18859   7.21622   7.24967
 Alpha virt. eigenvalues --    7.33606   7.34717   7.37432   7.43815   7.45134
 Alpha virt. eigenvalues --    7.52433   7.65050   7.66010   7.78746   7.80645
 Alpha virt. eigenvalues --    7.88669   7.95417   8.08600   8.15246   8.20115
 Alpha virt. eigenvalues --    8.29301   8.37145   8.43178   8.54271   8.63836
 Alpha virt. eigenvalues --    8.70869   8.80807   8.90723   9.02151   9.12022
 Alpha virt. eigenvalues --    9.13987   9.22565   9.24137   9.29239   9.34804
 Alpha virt. eigenvalues --    9.42290   9.48971   9.49850   9.53180   9.55854
 Alpha virt. eigenvalues --    9.60420   9.61674   9.68961   9.88906   9.92445
 Alpha virt. eigenvalues --    9.97323  10.48050  10.86713  11.22944  11.26575
 Alpha virt. eigenvalues --   11.29081  11.29301  11.29515  11.29657  11.29822
 Alpha virt. eigenvalues --   11.30331  11.30581  11.31982  11.33564  11.35108
 Alpha virt. eigenvalues --   11.36950  11.38438  11.43754  11.47551  11.53099
 Alpha virt. eigenvalues --   11.54484  11.55951  11.66484  11.68317  11.90925
 Alpha virt. eigenvalues --   11.93721  11.98901  12.03824  12.04950  12.13389
 Alpha virt. eigenvalues --   12.16224  12.21711  12.40916  13.68068  13.76096
 Alpha virt. eigenvalues --   14.27177  14.40273  14.41789  14.42798  14.45270
 Alpha virt. eigenvalues --   14.45816  14.49461  14.55331  14.62592  14.69460
 Alpha virt. eigenvalues --   14.72790  14.83683  14.84908  14.89448  15.11364
 Alpha virt. eigenvalues --   15.12200  15.30283  15.39514  15.40528  15.41719
 Alpha virt. eigenvalues --   15.44211  15.46671  15.51532  15.88441  15.89326
 Alpha virt. eigenvalues --   15.94428  16.00565  16.02082  16.03357  16.15799
 Alpha virt. eigenvalues --   16.16323  16.19316  16.22305  16.42525  16.45196
 Alpha virt. eigenvalues --   16.62805  16.64246  16.65466  16.69825  16.73837
 Alpha virt. eigenvalues --   16.78503  28.41620  29.40043  34.36627  34.36977
 Alpha virt. eigenvalues --   34.38484  34.39052  34.40280  34.42051  34.47238
 Alpha virt. eigenvalues --   37.79440  54.76582  54.78651  55.19274  95.15558
 Alpha virt. eigenvalues --  145.78477 195.32763 283.76823 283.79460 284.29999
 Alpha virt. eigenvalues --  322.234331817.75953
          Condensed to atoms (all electrons):
               1          2          3          4          5          6
     1  C    4.197562   0.187715   0.043571   0.259290   0.246580   0.247955
     2  N    0.187715   7.230308   0.103298  -0.078156  -0.053974  -0.048224
     3  H    0.043571   0.103298   0.498598   0.003819  -0.001785   0.001951
     4  F    0.259290  -0.078156   0.003819   9.202646  -0.063694  -0.062458
     5  F    0.246580  -0.053974  -0.001785  -0.063694   9.215113  -0.064206
     6  F    0.247955  -0.048224   0.001951  -0.062458  -0.064206   9.183122
     7  Br  -0.024082   0.127905  -0.019396   0.002589  -0.005255  -0.005032
               7
     1  C   -0.024082
     2  N    0.127905
     3  H   -0.019396
     4  F    0.002589
     5  F   -0.005255
     6  F   -0.005032
     7  Br  34.875829
 Mulliken charges:
               1
     1  C    0.841410
     2  N   -0.468872
     3  H    0.369943
     4  F   -0.264036
     5  F   -0.272779
     6  F   -0.253108
     7  Br   0.047442
 Sum of Mulliken charges =  -0.00000
 Mulliken charges with hydrogens summed into heavy atoms:
               1
     1  C    0.841410
     2  N   -0.098929
     4  F   -0.264036
     5  F   -0.272779
     6  F   -0.253108
     7  Br   0.047442
 Electronic spatial extent (au):  <R**2>=            880.0507
 Charge=             -0.0000 electrons
 Dipole moment (field-independent basis, Debye):
    X=             -1.1063    Y=              1.2011    Z=              0.7483  Tot=              1.7963
 Quadrupole moment (field-independent basis, Debye-Ang):
   XX=            -45.2134   YY=            -42.8897   ZZ=            -46.7871
   XY=              0.9914   XZ=             -0.1879   YZ=              1.7209
 Traceless Quadrupole moment (field-independent basis, Debye-Ang):
   XX=             -0.2500   YY=              2.0737   ZZ=             -1.8237
   XY=              0.9914   XZ=             -0.1879   YZ=              1.7209
 Octapole moment (field-independent basis, Debye-Ang**2):
  XXX=            -25.3893  YYY=              0.9949  ZZZ=              0.9620  XYY=             -5.5195
  XXY=             -6.0410  XXZ=              0.8724  XZZ=             -5.0736  YZZ=             -1.0436
  YYZ=              3.6678  XYZ=              0.6277
 Hexadecapole moment (field-independent basis, Debye-Ang**3):
 XXXX=           -600.6252 YYYY=           -118.6215 ZZZZ=           -115.3726 XXXY=              3.4200
 XXXZ=             -1.7549 YYYX=              1.1054 YYYZ=              6.0085 ZZZX=             -0.7734
 ZZZY=              2.7622 XXYY=           -125.2316 XXZZ=           -124.4683 YYZZ=            -41.0537
 XXYZ=              0.1358 YYXZ=              1.0976 ZZXY=              1.0903
 N-N= 4.576057429234D+02 E-N=-7.998238450539D+03  KE= 2.960765397193D+03
 PrsmSu:  requested number of processors reduced to:  21 ShMem   1 Linda.
 No NMR shielding tensors so no spin-rotation constants.
 Leave Link  601 at Sat Apr 17 21:13:32 2021, MaxMem=   104857600 cpu:             273.7 elap:               6.0
 (Enter /s/ls4/users/knvvv/bin/g16sse/l9999.exe)

 Test job not archived.
 1\1\GINC-N153\Stability\RM062X\Gen\C1H1Br1F3N1\KNVVV\17-Apr-2021\0\\#P
  M062X/GEN Integral=UltraFineGrid SCF=NoSymm Stable=(RExt, Opt) IOp(1/
 33=1)\\Database calculations.\\0,1\C,0,1.25873,0.003916,-0.019018\N,0,
 0.137237,0.837147,-0.283965\H,0,0.162788,1.636885,0.339696\F,0,2.35977
 7,0.761681,-0.167796\F,0,1.308952,-0.521072,1.227219\F,0,1.310501,-1.0
 15344,-0.87719\Br,0,-1.528254,-0.015651,0.003487\\Version=ES64L-G16Rev
 A.03\State=1-A\HF=-2967.286029\RMSD=2.161e-09\Dipole=-0.4352704,0.4725
 683,0.2943917\Quadrupole=-0.1858582,1.5417355,-1.3558773,0.7370483,-0.
 1397336,1.2794537\PG=C01 [X(C1H1Br1F3N1)]\\@


 IF AT FIRST YOU DON'T SUCCEED, TRY, TRY AGAIN.
 THEN GIVE UP;
 THERE'S NO USE BEING A DAMN FOOL ABOUT IT.

                                 -- W. C. FIELDS
 Job cpu time:       0 days 16 hours 22 minutes 12.8 seconds.
 Elapsed time:       0 days  0 hours 28 minutes 51.5 seconds.
 File lengths (MBytes):  RWF=    758 Int=      0 D2E=      0 Chk=     30 Scr=      1
 Normal termination of Gaussian 16 at Sat Apr 17 21:13:32 2021.
