 Entering Gaussian System, Link 0=/s/ls4/users/knvvv/bin/g16sse/g16
 Input=data/database/M062X--def2-QZVPPD--09c_acetamide_monC_3B-69.gjf
 Output=data/database/M062X--def2-QZVPPD--09c_acetamide_monC_3B-69.log
 Initial command:
 /s/ls4/users/knvvv/bin/g16sse/l1.exe "/s/ls4/users/knvvv/bin/scratch/Gau-13008.inp" -scrdir="/s/ls4/users/knvvv/bin/scratch/"
 Entering Link 1 = /s/ls4/users/knvvv/bin/g16sse/l1.exe PID=     13009.
  
 Copyright (c) 1988,1990,1992,1993,1995,1998,2003,2009,2016,
            Gaussian, Inc.  All Rights Reserved.
  
 This is part of the Gaussian(R) 16 program.  It is based on
 the Gaussian(R) 09 system (copyright 2009, Gaussian, Inc.),
 the Gaussian(R) 03 system (copyright 2003, Gaussian, Inc.),
 the Gaussian(R) 98 system (copyright 1998, Gaussian, Inc.),
 the Gaussian(R) 94 system (copyright 1995, Gaussian, Inc.),
 the Gaussian 92(TM) system (copyright 1992, Gaussian, Inc.),
 the Gaussian 90(TM) system (copyright 1990, Gaussian, Inc.),
 the Gaussian 88(TM) system (copyright 1988, Gaussian, Inc.),
 the Gaussian 86(TM) system (copyright 1986, Carnegie Mellon
 University), and the Gaussian 82(TM) system (copyright 1983,
 Carnegie Mellon University). Gaussian is a federally registered
 trademark of Gaussian, Inc.
  
 This software contains proprietary and confidential information,
 including trade secrets, belonging to Gaussian, Inc.
  
 This software is provided under written license and may be
 used, copied, transmitted, or stored only in accord with that
 written license.
  
 The following legend is applicable only to US Government
 contracts under FAR:
  
                    RESTRICTED RIGHTS LEGEND
  
 Use, reproduction and disclosure by the US Government is
 subject to restrictions as set forth in subparagraphs (a)
 and (c) of the Commercial Computer Software - Restricted
 Rights clause in FAR 52.227-19.
  
 Gaussian, Inc.
 340 Quinnipiac St., Bldg. 40, Wallingford CT 06492
  
  
 ---------------------------------------------------------------
 Warning -- This program may not be used in any manner that
 competes with the business of Gaussian, Inc. or will provide
 assistance to any competitor of Gaussian, Inc.  The licensee
 of this program is prohibited from giving any competitor of
 Gaussian, Inc. access to this program.  By using this program,
 the user acknowledges that Gaussian, Inc. is engaged in the
 business of creating and licensing software in the field of
 computational chemistry and represents and warrants to the
 licensee that it is not a competitor of Gaussian, Inc. and that
 it will not use this program in any manner prohibited above.
 ---------------------------------------------------------------
  

 Cite this work as:
 Gaussian 16, Revision A.03,
 M. J. Frisch, G. W. Trucks, H. B. Schlegel, G. E. Scuseria, 
 M. A. Robb, J. R. Cheeseman, G. Scalmani, V. Barone, 
 G. A. Petersson, H. Nakatsuji, X. Li, M. Caricato, A. V. Marenich, 
 J. Bloino, B. G. Janesko, R. Gomperts, B. Mennucci, H. P. Hratchian, 
 J. V. Ortiz, A. F. Izmaylov, J. L. Sonnenberg, D. Williams-Young, 
 F. Ding, F. Lipparini, F. Egidi, J. Goings, B. Peng, A. Petrone, 
 T. Henderson, D. Ranasinghe, V. G. Zakrzewski, J. Gao, N. Rega, 
 G. Zheng, W. Liang, M. Hada, M. Ehara, K. Toyota, R. Fukuda, 
 J. Hasegawa, M. Ishida, T. Nakajima, Y. Honda, O. Kitao, H. Nakai, 
 T. Vreven, K. Throssell, J. A. Montgomery, Jr., J. E. Peralta, 
 F. Ogliaro, M. J. Bearpark, J. J. Heyd, E. N. Brothers, K. N. Kudin, 
 V. N. Staroverov, T. A. Keith, R. Kobayashi, J. Normand, 
 K. Raghavachari, A. P. Rendell, J. C. Burant, S. S. Iyengar, 
 J. Tomasi, M. Cossi, J. M. Millam, M. Klene, C. Adamo, R. Cammi, 
 J. W. Ochterski, R. L. Martin, K. Morokuma, O. Farkas, 
 J. B. Foresman, and D. J. Fox, Gaussian, Inc., Wallingford CT, 2016.
 
 ******************************************
 Gaussian 16:  ES64L-G16RevA.03 25-Dec-2016
                17-Apr-2021 
 ******************************************
 %RWF=temp19_99800,70GB
 %nprocshared=48
 Will use up to   48 processors via shared memory.
 Default route: MaxDisk=80GB
 ----------------------------------------------------------------------
 #P M062X/GEN Integral=UltraFineGrid SCF=NoSymm Stable=(RExt, Opt) IOp(
 1/33=1)
 ----------------------------------------------------------------------
 1/33=1,38=1,172=1/1;
 2/12=2,17=6,18=5,40=1/2;
 3/5=7,11=2,25=1,30=1,74=-55,75=-5/1,2,3;
 4/9=2/1;
 5/5=2,38=5/2;
 6/7=2,8=2,9=2,10=2,28=1/1;
 8/6=1,10=90,11=11/1;
 9/8=-3,42=1,46=1/14;
 5/5=2,8=3,17=40,38=5/8(-2);
 6/7=2,8=2,9=2,10=2,28=1/1;
 99/5=1,9=1/99;
 Leave Link    1 at Sat Apr 17 05:03:59 2021, MaxMem=           0 cpu:              11.4 elap:               0.3
 (Enter /s/ls4/users/knvvv/bin/g16sse/l101.exe)
 ONIOM data not found on unit 2.
 ----------------------
 Database calculations.
 ----------------------
 TstMul:  ICh=     0
 TstMul:  Mul=     1
 TstMul:  ICh=     0
 TstMul:  Mul=     1
 Symbolic Z-matrix:
 Charge =  0 Multiplicity = 1
 C                     12.49692   4.61687   11.21522 
 C                     13.32084   3.35109   11.24277 
 O                     14.44786   3.31268   10.70543 
 N                     12.8076   2.31008   11.89717 
 H                     13.38059   1.4904    12.10769 
 H                     11.87917   2.37669   12.31994 
 H                     12.72699   5.18555   12.11844 
 H                     11.42707   4.41912   11.2071 
 H                     12.76319   5.22025   10.35245 
 
 RdStrC is calling ZToCFu for IStruc=1 NZ=     9.
 PrtBox:  NBox=     1 Levels=  1 BoxLen=    8.00 SMaxX=        7.05
          Shift=          -21.594033           -2.816448          -19.563291
 Box      1 Number                   0 centers from      1 to      9:
 After GenITR:
 ITRead=  0  0  0  0  0  0  0  0  0
 MicOpt= -1 -1 -1 -1 -1 -1 -1 -1 -1
 ITRead=  0  0  0  0  0  0  0  0  0
 MicOpt= -1 -1 -1 -1 -1 -1 -1 -1 -1
 NAtoms=      9 NQM=        9 NQMF=       0 NMMI=      0 NMMIF=      0
                NMic=       0 NMicF=      0.
                    Isotopes and Nuclear Properties:
 (Nuclear quadrupole moments (NQMom) in fm**2, nuclear magnetic moments (NMagM)
  in nuclear magnetons)

  Atom         1           2           3           4           5           6           7           8           9
 IAtWgt=          12          12          16          14           1           1           1           1           1
 AtmWgt=  12.0000000  12.0000000  15.9949146  14.0030740   1.0078250   1.0078250   1.0078250   1.0078250   1.0078250
 NucSpn=           0           0           0           2           1           1           1           1           1
 AtZEff=  -0.0000000  -0.0000000  -0.0000000  -0.0000000  -0.0000000  -0.0000000  -0.0000000  -0.0000000  -0.0000000
 NQMom=    0.0000000   0.0000000   0.0000000   2.0440000   0.0000000   0.0000000   0.0000000   0.0000000   0.0000000
 NMagM=    0.0000000   0.0000000   0.0000000   0.4037610   2.7928460   2.7928460   2.7928460   2.7928460   2.7928460
 AtZNuc=   6.0000000   6.0000000   8.0000000   7.0000000   1.0000000   1.0000000   1.0000000   1.0000000   1.0000000
 No MM parameters found.
 Leave Link  101 at Sat Apr 17 05:04:00 2021, MaxMem=   104857600 cpu:               9.9 elap:               0.2
 (Enter /s/ls4/users/knvvv/bin/g16sse/l202.exe)
                          Input orientation:                          
 ---------------------------------------------------------------------
 Center     Atomic      Atomic             Coordinates (Angstroms)
 Number     Number       Type             X           Y           Z
 ---------------------------------------------------------------------
      1          6           0       12.496918    4.616868   11.215224
      2          6           0       13.320837    3.351094   11.242769
      3          8           0       14.447857    3.312678   10.705431
      4          7           0       12.807604    2.310076   11.897167
      5          1           0       13.380595    1.490400   12.107694
      6          1           0       11.879165    2.376691   12.319939
      7          1           0       12.726988    5.185547   12.118437
      8          1           0       11.427070    4.419115   11.207102
      9          1           0       12.763188    5.220247   10.352448
 ---------------------------------------------------------------------
                    Distance matrix (angstroms):
                    1          2          3          4          5
     1  C    0.000000
     2  C    1.510558   0.000000
     3  O    2.401450   1.249153   0.000000
     4  N    2.425461   1.332428   2.261830   0.000000
     5  H    3.369301   2.052766   2.534973   1.022012   0.000000
     6  H    2.573015   2.046503   3.175041   1.022337   1.756375
     7  H    1.091843   2.117704   2.909573   2.885098   3.752523
     8  H    1.088001   2.174464   3.255922   2.613448   3.633827
     9  H    1.085978   2.144149   2.569344   3.295030   4.168194
                    6          7          8          9
     6  H    0.000000
     7  H    2.940932   0.000000
     8  H    2.369450   1.762877   0.000000
     9  H    3.569079   1.766701   1.776924   0.000000
 Stoichiometry    C2H5NO
 Framework group  C1[X(C2H5NO)]
 Deg. of freedom    21
 Full point group                 C1      NOp   1
 Largest Abelian subgroup         C1      NOp   1
 Largest concise Abelian subgroup C1      NOp   1
                         Standard orientation:                         
 ---------------------------------------------------------------------
 Center     Atomic      Atomic             Coordinates (Angstroms)
 Number     Number       Type             X           Y           Z
 ---------------------------------------------------------------------
      1          6           0       -1.362275   -0.309460    0.005166
      2          6           0        0.084670    0.123591   -0.019339
      3          8           0        0.387411    1.335383   -0.002264
      4          7           0        1.004200   -0.840680   -0.016305
      5          1           0        1.989322   -0.623564    0.147718
      6          1           0        0.718707   -1.822146   -0.036101
      7          1           0       -1.649763   -0.456893    1.048112
      8          1           0       -1.527316   -1.245913   -0.523572
      9          1           0       -1.994006    0.465430   -0.418875
 ---------------------------------------------------------------------
 Rotational constants (GHZ):          10.8013239           9.3523594           5.1756924
 Leave Link  202 at Sat Apr 17 05:04:00 2021, MaxMem=   104857600 cpu:               6.6 elap:               0.2
 (Enter /s/ls4/users/knvvv/bin/g16sse/l301.exe)
 General basis read from cards:  (5D, 7F)
 Centers:       5      6      7      8      9
 S 4 1.00
     Exponent=  1.9069169000D+02 Coefficients=  7.0815167000D-04
     Exponent=  2.8605532000D+01 Coefficients=  5.4678827000D-03
     Exponent=  6.5095943000D+00 Coefficients=  2.7966605000D-02
     Exponent=  1.8412455000D+00 Coefficients=  1.0764538000D-01
 S 1 1.00
     Exponent=  5.9853725000D-01 Coefficients=  1.0000000000D+00
 S 1 1.00
     Exponent=  2.1397624000D-01 Coefficients=  1.0000000000D+00
 S 1 1.00
     Exponent=  8.0316286000D-02 Coefficients=  1.0000000000D+00
 P 1 1.00
     Exponent=  2.2920000000D+00 Coefficients=  1.0000000000D+00
 P 1 1.00
     Exponent=  8.3800000000D-01 Coefficients=  1.0000000000D+00
 P 1 1.00
     Exponent=  2.9200000000D-01 Coefficients=  1.0000000000D+00
 P 1 1.00
     Exponent=  8.4063199228D-02 Coefficients=  1.0000000000D+00
 D 1 1.00
     Exponent=  2.0620000000D+00 Coefficients=  1.0000000000D+00
 D 1 1.00
     Exponent=  6.6200000000D-01 Coefficients=  1.0000000000D+00
 F 1 1.00
     Exponent=  1.3970000000D+00 Coefficients=  1.0000000000D+00
 ****
 Centers:       1      2
 S 8 1.00
     Exponent=  6.7025071029D+04 Coefficients=  3.8736308501D-05
     Exponent=  1.0039986538D+04 Coefficients=  3.0107917575D-04
     Exponent=  2.2849316911D+03 Coefficients=  1.5787918095D-03
     Exponent=  6.4714122130D+02 Coefficients=  6.6087087195D-03
     Exponent=  2.1109472335D+02 Coefficients=  2.3367123250D-02
     Exponent=  7.6177643862D+01 Coefficients=  7.0420716898D-02
     Exponent=  2.9633839163D+01 Coefficients=  1.7360344953D-01
     Exponent=  1.2187785081D+01 Coefficients=  3.2292305648D-01
 S 2 1.00
     Exponent=  5.3026006299D+01 Coefficients=  7.4897404492D-02
     Exponent=  1.5258502776D+01 Coefficients=  7.6136220983D-01
 S 1 1.00
     Exponent=  5.2403957464D+00 Coefficients=  1.0000000000D+00
 S 1 1.00
     Exponent=  2.2905022379D+00 Coefficients=  1.0000000000D+00
 S 1 1.00
     Exponent=  6.9673283006D-01 Coefficients=  1.0000000000D+00
 S 1 1.00
     Exponent=  2.7599337363D-01 Coefficients=  1.0000000000D+00
 S 1 1.00
     Exponent=  1.0739884389D-01 Coefficients=  1.0000000000D+00
 S 1 1.00
     Exponent=  4.4981404899D-02 Coefficients=  1.0000000000D+00
 P 5 1.00
     Exponent=  1.0512555082D+02 Coefficients=  8.4647553844D-04
     Exponent=  2.4884461066D+01 Coefficients=  6.6274038534D-03
     Exponent=  7.8637230826D+00 Coefficients=  3.0120390419D-02
     Exponent=  2.8407001835D+00 Coefficients=  9.9951435476D-02
     Exponent=  1.1227137335D+00 Coefficients=  2.3826299282D-01
 P 1 1.00
     Exponent=  4.6050725555D-01 Coefficients=  1.0000000000D+00
 P 1 1.00
     Exponent=  1.8937530913D-01 Coefficients=  1.0000000000D+00
 P 1 1.00
     Exponent=  7.5983791611D-02 Coefficients=  1.0000000000D+00
 D 1 1.00
     Exponent=  1.8480000000D+00 Coefficients=  1.0000000000D+00
 D 1 1.00
     Exponent=  6.4900000000D-01 Coefficients=  1.0000000000D+00
 D 1 1.00
     Exponent=  2.2800000000D-01 Coefficients=  1.0000000000D+00
 D 1 1.00
     Exponent=  7.6889830417D-02 Coefficients=  1.0000000000D+00
 F 1 1.00
     Exponent=  1.4190000000D+00 Coefficients=  1.0000000000D+00
 F 1 1.00
     Exponent=  4.8500000000D-01 Coefficients=  1.0000000000D+00
 G 1 1.00
     Exponent=  1.0110000000D+00 Coefficients=  1.0000000000D+00
 ****
 Centers:       4
 S 8 1.00
     Exponent=  9.0726889210D+04 Coefficients=  3.9257887368D-05
     Exponent=  1.3590528801D+04 Coefficients=  3.0513316455D-04
     Exponent=  3.0929883781D+03 Coefficients=  1.6000560446D-03
     Exponent=  8.7599876362D+02 Coefficients=  6.6982937306D-03
     Exponent=  2.8574469982D+02 Coefficients=  2.3690078765D-02
     Exponent=  1.0311913417D+02 Coefficients=  7.1455405268D-02
     Exponent=  4.0128556777D+01 Coefficients=  1.7632774876D-01
     Exponent=  1.6528095704D+01 Coefficients=  3.2677592815D-01
 S 2 1.00
     Exponent=  6.9390960983D+01 Coefficients=  8.0052094386D-02
     Exponent=  2.0428200596D+01 Coefficients=  7.8268063538D-01
 S 1 1.00
     Exponent=  7.1292587972D+00 Coefficients=  1.0000000000D+00
 S 1 1.00
     Exponent=  3.1324304893D+00 Coefficients=  1.0000000000D+00
 S 1 1.00
     Exponent=  9.8755778723D-01 Coefficients=  1.0000000000D+00
 S 1 1.00
     Exponent=  3.8765721307D-01 Coefficients=  1.0000000000D+00
 S 1 1.00
     Exponent=  1.4909883075D-01 Coefficients=  1.0000000000D+00
 S 1 1.00
     Exponent=  6.2151630318D-02 Coefficients=  1.0000000000D+00
 P 5 1.00
     Exponent=  1.5005742670D+02 Coefficients= -8.6216165986D-04
     Exponent=  3.5491599483D+01 Coefficients= -6.8571273236D-03
     Exponent=  1.1247864223D+01 Coefficients= -3.1795688855D-02
     Exponent=  4.0900305195D+00 Coefficients= -1.0537396822D-01
     Exponent=  1.6220573146D+00 Coefficients= -2.4519708041D-01
 P 1 1.00
     Exponent=  6.6442261530D-01 Coefficients=  1.0000000000D+00
 P 1 1.00
     Exponent=  2.7099770070D-01 Coefficients=  1.0000000000D+00
 P 1 1.00
     Exponent=  1.0688749984D-01 Coefficients=  1.0000000000D+00
 D 1 1.00
     Exponent=  2.8370000000D+00 Coefficients=  1.0000000000D+00
 D 1 1.00
     Exponent=  9.6800000000D-01 Coefficients=  1.0000000000D+00
 D 1 1.00
     Exponent=  3.3500000000D-01 Coefficients=  1.0000000000D+00
 D 1 1.00
     Exponent=  1.0825280010D-01 Coefficients=  1.0000000000D+00
 F 1 1.00
     Exponent=  2.0270000000D+00 Coefficients=  1.0000000000D+00
 F 1 1.00
     Exponent=  6.8500000000D-01 Coefficients=  1.0000000000D+00
 G 1 1.00
     Exponent=  1.4270000000D+00 Coefficients=  1.0000000000D+00
 ****
 Centers:       3
 S 8 1.00
     Exponent=  1.1650646908D+05 Coefficients=  4.0383857939D-05
     Exponent=  1.7504349724D+04 Coefficients=  3.1255139004D-04
     Exponent=  3.9934513230D+03 Coefficients=  1.6341473495D-03
     Exponent=  1.1330063186D+03 Coefficients=  6.8283224757D-03
     Exponent=  3.6999569594D+02 Coefficients=  2.4124410221D-02
     Exponent=  1.3362074349D+02 Coefficients=  7.2730206154D-02
     Exponent=  5.2035643649D+01 Coefficients=  1.7934429892D-01
     Exponent=  2.1461939313D+01 Coefficients=  3.3059588895D-01
 S 2 1.00
     Exponent=  8.9835051252D+01 Coefficients=  9.6468652996D-02
     Exponent=  2.6428010844D+01 Coefficients=  9.4117481120D-01
 S 1 1.00
     Exponent=  9.2822824649D+00 Coefficients=  1.0000000000D+00
 S 1 1.00
     Exponent=  4.0947728533D+00 Coefficients=  1.0000000000D+00
 S 1 1.00
     Exponent=  1.3255349078D+00 Coefficients=  1.0000000000D+00
 S 1 1.00
     Exponent=  5.1877230787D-01 Coefficients=  1.0000000000D+00
 S 1 1.00
     Exponent=  1.9772676454D-01 Coefficients=  1.0000000000D+00
 S 1 1.00
     Exponent=  6.9638535104D-02 Coefficients=  1.0000000000D+00
 P 5 1.00
     Exponent=  1.9115255810D+02 Coefficients=  2.5115697705D-03
     Exponent=  4.5233356739D+01 Coefficients=  2.0039240864D-02
     Exponent=  1.4353465922D+01 Coefficients=  9.3609064762D-02
     Exponent=  5.2422371832D+00 Coefficients=  3.0618127124D-01
     Exponent=  2.0792418599D+00 Coefficients=  6.7810501439D-01
 P 1 1.00
     Exponent=  8.4282371424D-01 Coefficients=  1.0000000000D+00
 P 1 1.00
     Exponent=  3.3617694891D-01 Coefficients=  1.0000000000D+00
 P 1 1.00
     Exponent=  1.2863997974D-01 Coefficients=  1.0000000000D+00
 P 1 1.00
     Exponent=  4.3598162776D-02 Coefficients=  1.0000000000D+00
 D 1 1.00
     Exponent=  3.7750000000D+00 Coefficients=  1.0000000000D+00
 D 1 1.00
     Exponent=  1.3000000000D+00 Coefficients=  1.0000000000D+00
 D 1 1.00
     Exponent=  4.4400000000D-01 Coefficients=  1.0000000000D+00
 D 1 1.00
     Exponent=  1.2546378695D-01 Coefficients=  1.0000000000D+00
 F 1 1.00
     Exponent=  2.6660000000D+00 Coefficients=  1.0000000000D+00
 F 1 1.00
     Exponent=  8.5900000000D-01 Coefficients=  1.0000000000D+00
 G 1 1.00
     Exponent=  1.8460000000D+00 Coefficients=  1.0000000000D+00
 ****
 Ernie: Thresh=  0.10000D-02 Tol=  0.10000D-05 Strict=F.
 There are   509 symmetry adapted cartesian basis functions of A   symmetry.
 There are   420 symmetry adapted basis functions of A   symmetry.
   420 basis functions,   604 primitive gaussians,   509 cartesian basis functions
    16 alpha electrons       16 beta electrons
       nuclear repulsion energy       121.5765027403 Hartrees.
 IExCor= 4336 DFT=T Ex+Corr=M062X ExCW=0 ScaHFX=  0.540000
 ScaDFX=  1.000000  1.000000  1.000000  1.000000 ScalE2=  1.000000  1.000000
 IRadAn=      5 IRanWt=     -1 IRanGd=            0 ICorTp=0 IEmpDi=  4
 NAtoms=    9 NActive=    9 NUniq=    9 SFac= 1.00D+00 NAtFMM=   60 NAOKFM=F Big=F
 Integral buffers will be    131072 words long.
 Raffenetti 2 integral format.
 Two-electron integral symmetry is turned on.
 Leave Link  301 at Sat Apr 17 05:04:00 2021, MaxMem=   104857600 cpu:              14.2 elap:               0.3
 (Enter /s/ls4/users/knvvv/bin/g16sse/l302.exe)
 NPDir=0 NMtPBC=     1 NCelOv=     1 NCel=       1 NClECP=     1 NCelD=      1
         NCelK=      1 NCelE2=     1 NClLst=     1 CellRange=     0.0.
 One-electron integrals computed using PRISM.
 One-electron integral symmetry used in STVInt
 PrsmSu:  requested number of processors reduced to:   4 ShMem   1 Linda.
 PrsmSu:  requested number of processors reduced to:  20 ShMem   1 Linda.
 NBasis=   420 RedAO= T EigKep=  6.11D-06  NBF=   420
 NBsUse=   418 1.00D-06 EigRej=  9.36D-07 NBFU=   418
 Precomputing XC quadrature grid using
 IXCGrd= 4 IRadAn=           5 IRanWt=          -1 IRanGd=           0 AccXCQ= 0.00D+00.
 Generated NRdTot=       0 NPtTot=           0 NUsed=           0 NTot=          32
 NSgBfM=   509   509   509   509   509 MxSgAt=     9 MxSgA2=     9.
 Leave Link  302 at Sat Apr 17 05:04:07 2021, MaxMem=   104857600 cpu:             320.1 elap:               7.0
 (Enter /s/ls4/users/knvvv/bin/g16sse/l303.exe)
 DipDrv:  MaxL=1.
 Leave Link  303 at Sat Apr 17 05:04:10 2021, MaxMem=   104857600 cpu:             126.0 elap:               2.8
 (Enter /s/ls4/users/knvvv/bin/g16sse/l401.exe)
 SCF N**3 symmetry information disabled.
 ExpMin= 4.36D-02 ExpMax= 1.17D+05 ExpMxC= 1.13D+03 IAcc=3 IRadAn=         5 AccDes= 0.00D+00
 Harris functional with IExCor= 1009 and IRadAn=       5 diagonalized for initial guess.
 HarFok:  IExCor= 1009 AccDes= 0.00D+00 IRadAn=         5 IDoV= 1 UseB2=F ITyADJ=14
 ICtDFT=  3500011 ScaDFX=  1.000000  1.000000  1.000000  1.000000
 FoFCou: FMM=F IPFlag=           0 FMFlag=      100000 FMFlg1=           0
         NFxFlg=           0 DoJE=T BraDBF=F KetDBF=T FulRan=T
         wScrn=  0.000000 ICntrl=       500 IOpCl=  0 I1Cent=   200000004 NGrid=           0
         NMat0=    1 NMatS0=      1 NMatT0=    0 NMatD0=    1 NMtDS0=    0 NMtDT0=    0
 Petite list used in FoFCou.
 CoulSu:  requested number of processors reduced to:  19 ShMem   1 Linda.
 CoulSu:  requested number of processors reduced to:  20 ShMem   1 Linda.
 CoulSu:  requested number of processors reduced to:  21 ShMem   1 Linda.
 CoulSu:  requested number of processors reduced to:  21 ShMem   1 Linda.
 Harris En= -209.167429516163    
 JPrj=0 DoOrth=F DoCkMO=F.
 Leave Link  401 at Sat Apr 17 05:04:14 2021, MaxMem=   104857600 cpu:             179.3 elap:               4.2
 (Enter /s/ls4/users/knvvv/bin/g16sse/l502.exe)
 Integral symmetry usage will be decided dynamically.
 Closed shell SCF:
 Using DIIS extrapolation, IDIIS=  1040.
 NGot=   104857600 LenX=   104310949 LenY=   104051359
 Requested convergence on RMS density matrix=1.00D-08 within 128 cycles.
 Requested convergence on MAX density matrix=1.00D-06.
 Requested convergence on             energy=1.00D-06.
 No special actions if energy rises.
 Fock matrices will be formed incrementally for  20 cycles.

 Cycle   1  Pass 1  IDiag  1:
 FoFJK:  IHMeth= 1 ICntrl=       0 DoSepK=F KAlg= 0 I1Cent=           0 FoldK=F
 IRaf= 980000000 NMat=       1 IRICut=       1 DoRegI=T DoRafI=F ISym2E= 0 IDoP0=0 IntGTp=1.
 FoFCou: FMM=F IPFlag=           0 FMFlag=      100000 FMFlg1=           0
         NFxFlg=           0 DoJE=F BraDBF=F KetDBF=F FulRan=T
         wScrn=  0.000000 ICntrl=         0 IOpCl=  0 I1Cent=           0 NGrid=           0
         NMat0=    1 NMatS0=      1 NMatT0=    0 NMatD0=    1 NMtDS0=    0 NMtDT0=    0
 Symmetry not used in FoFCou.
 CoulSu:  requested number of processors reduced to:  20 ShMem   1 Linda.
 E= -209.050330997988    
 DIIS: error= 2.61D-02 at cycle   1 NSaved=   1.
 NSaved= 1 IEnMin= 1 EnMin= -209.050330997988     IErMin= 1 ErrMin= 2.61D-02
 ErrMax= 2.61D-02  0.00D+00 EMaxC= 1.00D-01 BMatC= 3.10D-01 BMatP= 3.10D-01
 IDIUse=3 WtCom= 7.39D-01 WtEn= 2.61D-01
 Coeff-Com:  0.100D+01
 Coeff-En:   0.100D+01
 Coeff:      0.100D+01
 Gap=     0.367 Goal=   None    Shift=    0.000
 GapD=    0.367 DampG=1.000 DampE=0.500 DampFc=0.5000 IDamp=-1.
 Damping current iteration by 5.00D-01
 RMSDP=1.32D-03 MaxDP=6.06D-02              OVMax= 2.53D-01

 Cycle   2  Pass 1  IDiag  1:
 RMSU=  6.38D-04    CP:  9.58D-01
 CoulSu:  requested number of processors reduced to:  20 ShMem   1 Linda.
 E= -209.127547873042     Delta-E=       -0.077216875055 Rises=F Damp=T
 DIIS: error= 1.52D-02 at cycle   2 NSaved=   2.
 NSaved= 2 IEnMin= 2 EnMin= -209.127547873042     IErMin= 2 ErrMin= 1.52D-02
 ErrMax= 1.52D-02  0.00D+00 EMaxC= 1.00D-01 BMatC= 4.03D-02 BMatP= 3.10D-01
 IDIUse=3 WtCom= 8.48D-01 WtEn= 1.52D-01
 Coeff-Com: -0.222D-01 0.102D+01
 Coeff-En:   0.867D-01 0.913D+00
 Coeff:     -0.568D-02 0.101D+01
 Gap=     0.352 Goal=   None    Shift=    0.000
 RMSDP=8.54D-04 MaxDP=5.34D-02 DE=-7.72D-02 OVMax= 1.39D-01

 Cycle   3  Pass 1  IDiag  1:
 RMSU=  8.35D-04    CP:  9.32D-01  1.22D+00
 CoulSu:  requested number of processors reduced to:  20 ShMem   1 Linda.
 E= -209.210634308609     Delta-E=       -0.083086435567 Rises=F Damp=F
 DIIS: error= 7.35D-03 at cycle   3 NSaved=   3.
 NSaved= 3 IEnMin= 3 EnMin= -209.210634308609     IErMin= 3 ErrMin= 7.35D-03
 ErrMax= 7.35D-03  0.00D+00 EMaxC= 1.00D-01 BMatC= 2.25D-02 BMatP= 4.03D-02
 IDIUse=3 WtCom= 9.27D-01 WtEn= 7.35D-02
 Coeff-Com: -0.112D+00 0.470D+00 0.642D+00
 Coeff-En:   0.000D+00 0.000D+00 0.100D+01
 Coeff:     -0.103D+00 0.435D+00 0.668D+00
 Gap=     0.348 Goal=   None    Shift=    0.000
 RMSDP=2.55D-04 MaxDP=1.64D-02 DE=-8.31D-02 OVMax= 6.55D-02

 Cycle   4  Pass 1  IDiag  1:
 RMSU=  2.42D-04    CP:  9.31D-01  1.34D+00  9.57D-01
 CoulSu:  requested number of processors reduced to:  20 ShMem   1 Linda.
 E= -209.222711478226     Delta-E=       -0.012077169617 Rises=F Damp=F
 DIIS: error= 2.73D-03 at cycle   4 NSaved=   4.
 NSaved= 4 IEnMin= 4 EnMin= -209.222711478226     IErMin= 4 ErrMin= 2.73D-03
 ErrMax= 2.73D-03  0.00D+00 EMaxC= 1.00D-01 BMatC= 4.87D-03 BMatP= 2.25D-02
 IDIUse=3 WtCom= 9.73D-01 WtEn= 2.73D-02
 Coeff-Com: -0.462D-01 0.986D-01 0.363D+00 0.585D+00
 Coeff-En:   0.000D+00 0.000D+00 0.195D+00 0.805D+00
 Coeff:     -0.449D-01 0.959D-01 0.358D+00 0.591D+00
 Gap=     0.328 Goal=   None    Shift=    0.000
 RMSDP=9.32D-05 MaxDP=6.42D-03 DE=-1.21D-02 OVMax= 1.78D-02

 Cycle   5  Pass 1  IDiag  1:
 RMSU=  6.67D-05    CP:  9.28D-01  1.31D+00  9.61D-01  7.45D-01
 CoulSu:  requested number of processors reduced to:  20 ShMem   1 Linda.
 E= -209.226358228026     Delta-E=       -0.003646749800 Rises=F Damp=F
 DIIS: error= 2.63D-04 at cycle   5 NSaved=   5.
 NSaved= 5 IEnMin= 5 EnMin= -209.226358228026     IErMin= 5 ErrMin= 2.63D-04
 ErrMax= 2.63D-04  0.00D+00 EMaxC= 1.00D-01 BMatC= 3.28D-05 BMatP= 4.87D-03
 IDIUse=3 WtCom= 9.97D-01 WtEn= 2.63D-03
 Coeff-Com: -0.111D-01 0.217D-01 0.902D-01 0.179D+00 0.720D+00
 Coeff-En:   0.000D+00 0.000D+00 0.000D+00 0.000D+00 0.100D+01
 Coeff:     -0.111D-01 0.216D-01 0.900D-01 0.178D+00 0.721D+00
 Gap=     0.327 Goal=   None    Shift=    0.000
 RMSDP=2.10D-05 MaxDP=1.11D-03 DE=-3.65D-03 OVMax= 3.19D-03

 Cycle   6  Pass 1  IDiag  1:
 RMSU=  1.53D-05    CP:  9.27D-01  1.31D+00  9.59D-01  7.77D-01  1.17D+00
 CoulSu:  requested number of processors reduced to:  20 ShMem   1 Linda.
 E= -209.226385924184     Delta-E=       -0.000027696159 Rises=F Damp=F
 DIIS: error= 1.28D-04 at cycle   6 NSaved=   6.
 NSaved= 6 IEnMin= 6 EnMin= -209.226385924184     IErMin= 6 ErrMin= 1.28D-04
 ErrMax= 1.28D-04  0.00D+00 EMaxC= 1.00D-01 BMatC= 7.06D-06 BMatP= 3.28D-05
 IDIUse=3 WtCom= 9.99D-01 WtEn= 1.28D-03
 Coeff-Com:  0.395D-02-0.889D-02-0.285D-01-0.344D-01 0.311D+00 0.757D+00
 Coeff-En:   0.000D+00 0.000D+00 0.000D+00 0.000D+00 0.000D+00 0.100D+01
 Coeff:      0.395D-02-0.888D-02-0.285D-01-0.344D-01 0.310D+00 0.758D+00
 Gap=     0.327 Goal=   None    Shift=    0.000
 RMSDP=9.63D-06 MaxDP=4.68D-04 DE=-2.77D-05 OVMax= 8.81D-04

 Cycle   7  Pass 1  IDiag  1:
 RMSU=  4.82D-06    CP:  9.27D-01  1.30D+00  9.58D-01  7.90D-01  1.29D+00
                    CP:  1.10D+00
 CoulSu:  requested number of processors reduced to:  20 ShMem   1 Linda.
 E= -209.226392987630     Delta-E=       -0.000007063445 Rises=F Damp=F
 DIIS: error= 2.86D-05 at cycle   7 NSaved=   7.
 NSaved= 7 IEnMin= 7 EnMin= -209.226392987630     IErMin= 7 ErrMin= 2.86D-05
 ErrMax= 2.86D-05  0.00D+00 EMaxC= 1.00D-01 BMatC= 3.13D-07 BMatP= 7.06D-06
 IDIUse=1 WtCom= 1.00D+00 WtEn= 0.00D+00
 Coeff-Com:  0.138D-02-0.289D-02-0.785D-02-0.173D-01-0.855D-02 0.661D-01
 Coeff-Com:  0.969D+00
 Coeff:      0.138D-02-0.289D-02-0.785D-02-0.173D-01-0.855D-02 0.661D-01
 Coeff:      0.969D+00
 Gap=     0.328 Goal=   None    Shift=    0.000
 RMSDP=3.04D-06 MaxDP=1.73D-04 DE=-7.06D-06 OVMax= 3.31D-04

 Cycle   8  Pass 1  IDiag  1:
 RMSU=  2.18D-06    CP:  9.27D-01  1.30D+00  9.58D-01  7.95D-01  1.31D+00
                    CP:  1.12D+00  1.23D+00
 CoulSu:  requested number of processors reduced to:  20 ShMem   1 Linda.
 E= -209.226393440888     Delta-E=       -0.000000453258 Rises=F Damp=F
 DIIS: error= 6.78D-06 at cycle   8 NSaved=   8.
 NSaved= 8 IEnMin= 8 EnMin= -209.226393440888     IErMin= 8 ErrMin= 6.78D-06
 ErrMax= 6.78D-06  0.00D+00 EMaxC= 1.00D-01 BMatC= 2.23D-08 BMatP= 3.13D-07
 IDIUse=1 WtCom= 1.00D+00 WtEn= 0.00D+00
 Coeff-Com: -0.132D-03 0.280D-03 0.136D-02 0.124D-03-0.206D-01-0.484D-01
 Coeff-Com:  0.108D+00 0.960D+00
 Coeff:     -0.132D-03 0.280D-03 0.136D-02 0.124D-03-0.206D-01-0.484D-01
 Coeff:      0.108D+00 0.960D+00
 Gap=     0.328 Goal=   None    Shift=    0.000
 RMSDP=8.76D-07 MaxDP=4.54D-05 DE=-4.53D-07 OVMax= 1.04D-04

 Cycle   9  Pass 1  IDiag  1:
 RMSU=  3.73D-07    CP:  9.27D-01  1.30D+00  9.58D-01  7.95D-01  1.31D+00
                    CP:  1.12D+00  1.31D+00  1.30D+00
 CoulSu:  requested number of processors reduced to:  20 ShMem   1 Linda.
 E= -209.226393475087     Delta-E=       -0.000000034200 Rises=F Damp=F
 DIIS: error= 4.78D-06 at cycle   9 NSaved=   9.
 NSaved= 9 IEnMin= 9 EnMin= -209.226393475087     IErMin= 9 ErrMin= 4.78D-06
 ErrMax= 4.78D-06  0.00D+00 EMaxC= 1.00D-01 BMatC= 4.47D-09 BMatP= 2.23D-08
 IDIUse=1 WtCom= 1.00D+00 WtEn= 0.00D+00
 Coeff-Com: -0.176D-03 0.361D-03 0.120D-02 0.169D-02-0.439D-02-0.214D-01
 Coeff-Com: -0.775D-01 0.355D+00 0.746D+00
 Coeff:     -0.176D-03 0.361D-03 0.120D-02 0.169D-02-0.439D-02-0.214D-01
 Coeff:     -0.775D-01 0.355D+00 0.746D+00
 Gap=     0.328 Goal=   None    Shift=    0.000
 RMSDP=2.36D-07 MaxDP=1.81D-05 DE=-3.42D-08 OVMax= 3.81D-05

 Cycle  10  Pass 1  IDiag  1:
 RMSU=  1.21D-07    CP:  9.27D-01  1.30D+00  9.58D-01  7.95D-01  1.31D+00
                    CP:  1.12D+00  1.32D+00  1.38D+00  1.09D+00
 CoulSu:  requested number of processors reduced to:  20 ShMem   1 Linda.
 E= -209.226393480035     Delta-E=       -0.000000004947 Rises=F Damp=F
 DIIS: error= 6.73D-07 at cycle  10 NSaved=  10.
 NSaved=10 IEnMin=10 EnMin= -209.226393480035     IErMin=10 ErrMin= 6.73D-07
 ErrMax= 6.73D-07  0.00D+00 EMaxC= 1.00D-01 BMatC= 1.70D-10 BMatP= 4.47D-09
 IDIUse=1 WtCom= 1.00D+00 WtEn= 0.00D+00
 Coeff-Com: -0.267D-04 0.581D-04 0.183D-03 0.313D-03 0.234D-03-0.238D-02
 Coeff-Com: -0.251D-01 0.189D-01 0.149D+00 0.859D+00
 Coeff:     -0.267D-04 0.581D-04 0.183D-03 0.313D-03 0.234D-03-0.238D-02
 Coeff:     -0.251D-01 0.189D-01 0.149D+00 0.859D+00
 Gap=     0.328 Goal=   None    Shift=    0.000
 RMSDP=4.42D-08 MaxDP=3.01D-06 DE=-4.95D-09 OVMax= 7.22D-06

 Cycle  11  Pass 1  IDiag  1:
 RMSU=  3.54D-08    CP:  9.27D-01  1.30D+00  9.58D-01  7.95D-01  1.31D+00
                    CP:  1.12D+00  1.32D+00  1.38D+00  1.12D+00  1.12D+00
 CoulSu:  requested number of processors reduced to:  20 ShMem   1 Linda.
 E= -209.226393480228     Delta-E=       -0.000000000193 Rises=F Damp=F
 DIIS: error= 2.13D-07 at cycle  11 NSaved=  11.
 NSaved=11 IEnMin=11 EnMin= -209.226393480228     IErMin=11 ErrMin= 2.13D-07
 ErrMax= 2.13D-07  0.00D+00 EMaxC= 1.00D-01 BMatC= 1.54D-11 BMatP= 1.70D-10
 IDIUse=1 WtCom= 1.00D+00 WtEn= 0.00D+00
 Coeff-Com:  0.919D-05-0.177D-04-0.359D-04-0.597D-04 0.323D-03 0.929D-03
 Coeff-Com:  0.148D-02-0.197D-01-0.323D-01 0.797D-01 0.970D+00
 Coeff:      0.919D-05-0.177D-04-0.359D-04-0.597D-04 0.323D-03 0.929D-03
 Coeff:      0.148D-02-0.197D-01-0.323D-01 0.797D-01 0.970D+00
 Gap=     0.328 Goal=   None    Shift=    0.000
 RMSDP=1.35D-08 MaxDP=8.11D-07 DE=-1.93D-10 OVMax= 1.45D-06

 Cycle  12  Pass 1  IDiag  1:
 RMSU=  7.80D-09    CP:  9.27D-01  1.30D+00  9.58D-01  7.95D-01  1.31D+00
                    CP:  1.12D+00  1.32D+00  1.38D+00  1.13D+00  1.17D+00
                    CP:  1.17D+00
 CoulSu:  requested number of processors reduced to:  20 ShMem   1 Linda.
 E= -209.226393480245     Delta-E=       -0.000000000017 Rises=F Damp=F
 DIIS: error= 3.59D-08 at cycle  12 NSaved=  12.
 NSaved=12 IEnMin=12 EnMin= -209.226393480245     IErMin=12 ErrMin= 3.59D-08
 ErrMax= 3.59D-08  0.00D+00 EMaxC= 1.00D-01 BMatC= 5.58D-13 BMatP= 1.54D-11
 IDIUse=1 WtCom= 1.00D+00 WtEn= 0.00D+00
 Coeff-Com:  0.131D-05-0.287D-05-0.187D-05-0.561D-05 0.358D-04 0.167D-03
 Coeff-Com:  0.527D-03-0.219D-02-0.614D-02-0.195D-01 0.727D-01 0.954D+00
 Coeff:      0.131D-05-0.287D-05-0.187D-05-0.561D-05 0.358D-04 0.167D-03
 Coeff:      0.527D-03-0.219D-02-0.614D-02-0.195D-01 0.727D-01 0.954D+00
 Gap=     0.328 Goal=   None    Shift=    0.000
 RMSDP=3.10D-09 MaxDP=1.64D-07 DE=-1.69D-11 OVMax= 2.98D-07

 SCF Done:  E(RM062X) =  -209.226393480     A.U. after   12 cycles
            NFock= 12  Conv=0.31D-08     -V/T= 2.0044
 KE= 2.083055173743D+02 PE=-7.326752411405D+02 EE= 1.935668275458D+02
 Leave Link  502 at Sat Apr 17 05:06:24 2021, MaxMem=   104857600 cpu:            3766.3 elap:             129.3
 (Enter /s/ls4/users/knvvv/bin/g16sse/l601.exe)
 Copying SCF densities to generalized density rwf, IOpCl= 0 IROHF=0.

 **********************************************************************

            Population analysis using the SCF density.

 **********************************************************************

 Orbital symmetries:
       Occupied  (A) (A) (A) (A) (A) (A) (A) (A) (A) (A) (A) (A)
                 (A) (A) (A) (A)
       Virtual   (A) (A) (A) (A) (A) (A) (A) (A) (A) (A) (A) (A)
                 (A) (A) (A) (A) (A) (A) (A) (A) (A) (A) (A) (A)
                 (A) (A) (A) (A) (A) (A) (A) (A) (A) (A) (A) (A)
                 (A) (A) (A) (A) (A) (A) (A) (A) (A) (A) (A) (A)
                 (A) (A) (A) (A) (A) (A) (A) (A) (A) (A) (A) (A)
                 (A) (A) (A) (A) (A) (A) (A) (A) (A) (A) (A) (A)
                 (A) (A) (A) (A) (A) (A) (A) (A) (A) (A) (A) (A)
                 (A) (A) (A) (A) (A) (A) (A) (A) (A) (A) (A) (A)
                 (A) (A) (A) (A) (A) (A) (A) (A) (A) (A) (A) (A)
                 (A) (A) (A) (A) (A) (A) (A) (A) (A) (A) (A) (A)
                 (A) (A) (A) (A) (A) (A) (A) (A) (A) (A) (A) (A)
                 (A) (A) (A) (A) (A) (A) (A) (A) (A) (A) (A) (A)
                 (A) (A) (A) (A) (A) (A) (A) (A) (A) (A) (A) (A)
                 (A) (A) (A) (A) (A) (A) (A) (A) (A) (A) (A) (A)
                 (A) (A) (A) (A) (A) (A) (A) (A) (A) (A) (A) (A)
                 (A) (A) (A) (A) (A) (A) (A) (A) (A) (A) (A) (A)
                 (A) (A) (A) (A) (A) (A) (A) (A) (A) (A) (A) (A)
                 (A) (A) (A) (A) (A) (A) (A) (A) (A) (A) (A) (A)
                 (A) (A) (A) (A) (A) (A) (A) (A) (A) (A) (A) (A)
                 (A) (A) (A) (A) (A) (A) (A) (A) (A) (A) (A) (A)
                 (A) (A) (A) (A) (A) (A) (A) (A) (A) (A) (A) (A)
                 (A) (A) (A) (A) (A) (A) (A) (A) (A) (A) (A) (A)
                 (A) (A) (A) (A) (A) (A) (A) (A) (A) (A) (A) (A)
                 (A) (A) (A) (A) (A) (A) (A) (A) (A) (A) (A) (A)
                 (A) (A) (A) (A) (A) (A) (A) (A) (A) (A) (A) (A)
                 (A) (A) (A) (A) (A) (A) (A) (A) (A) (A) (A) (A)
                 (A) (A) (A) (A) (A) (A) (A) (A) (A) (A) (A) (A)
                 (A) (A) (A) (A) (A) (A) (A) (A) (A) (A) (A) (A)
                 (A) (A) (A) (A) (A) (A) (A) (A) (A) (A) (A) (A)
                 (A) (A) (A) (A) (A) (A) (A) (A) (A) (A) (A) (A)
                 (A) (A) (A) (A) (A) (A) (A) (A) (A) (A) (A) (A)
                 (A) (A) (A) (A) (A) (A) (A) (A) (A) (A) (A) (A)
                 (A) (A) (A) (A) (A) (A) (A) (A) (A) (A) (A) (A)
                 (A) (A) (A) (A) (A) (A)
 The electronic state is 1-A.
 Alpha  occ. eigenvalues --  -19.58481 -14.78364 -10.65176 -10.54897  -1.14354
 Alpha  occ. eigenvalues --   -1.02252  -0.84045  -0.68302  -0.62241  -0.55212
 Alpha  occ. eigenvalues --   -0.52630  -0.47518  -0.47037  -0.44134  -0.34091
 Alpha  occ. eigenvalues --   -0.32835
 Alpha virt. eigenvalues --   -0.00060   0.02781   0.03842   0.04645   0.06293
 Alpha virt. eigenvalues --    0.07074   0.07734   0.07976   0.09528   0.10918
 Alpha virt. eigenvalues --    0.11973   0.13200   0.15589   0.15838   0.16728
 Alpha virt. eigenvalues --    0.17972   0.18142   0.19714   0.20851   0.21441
 Alpha virt. eigenvalues --    0.22515   0.24613   0.24981   0.25412   0.26341
 Alpha virt. eigenvalues --    0.26665   0.27219   0.28119   0.28890   0.29637
 Alpha virt. eigenvalues --    0.30133   0.31125   0.32131   0.32982   0.34325
 Alpha virt. eigenvalues --    0.34957   0.35474   0.36727   0.36890   0.36929
 Alpha virt. eigenvalues --    0.38478   0.39667   0.40693   0.41850   0.43120
 Alpha virt. eigenvalues --    0.44354   0.45546   0.47348   0.49106   0.49972
 Alpha virt. eigenvalues --    0.50197   0.51608   0.52669   0.53628   0.54011
 Alpha virt. eigenvalues --    0.56158   0.57456   0.58607   0.60799   0.62198
 Alpha virt. eigenvalues --    0.63260   0.63968   0.66298   0.67805   0.69311
 Alpha virt. eigenvalues --    0.70883   0.71668   0.73594   0.75924   0.79092
 Alpha virt. eigenvalues --    0.80097   0.81665   0.82633   0.84411   0.85226
 Alpha virt. eigenvalues --    0.86615   0.88955   0.89095   0.91202   0.91925
 Alpha virt. eigenvalues --    0.93623   0.95931   0.97141   1.00915   1.02805
 Alpha virt. eigenvalues --    1.04843   1.07338   1.08720   1.11087   1.15101
 Alpha virt. eigenvalues --    1.15744   1.16931   1.19032   1.20518   1.21467
 Alpha virt. eigenvalues --    1.22210   1.25725   1.27043   1.29145   1.31409
 Alpha virt. eigenvalues --    1.34282   1.37524   1.38862   1.42075   1.44621
 Alpha virt. eigenvalues --    1.46513   1.47625   1.48882   1.51727   1.53379
 Alpha virt. eigenvalues --    1.62848   1.66472   1.68432   1.70243   1.73294
 Alpha virt. eigenvalues --    1.74180   1.79500   1.81168   1.84378   1.87818
 Alpha virt. eigenvalues --    1.90626   1.92401   1.96232   1.97182   1.98336
 Alpha virt. eigenvalues --    2.03031   2.04585   2.06191   2.07730   2.09693
 Alpha virt. eigenvalues --    2.11270   2.13228   2.15475   2.16358   2.18913
 Alpha virt. eigenvalues --    2.20931   2.23238   2.25482   2.27537   2.30051
 Alpha virt. eigenvalues --    2.31216   2.35600   2.37993   2.39633   2.41212
 Alpha virt. eigenvalues --    2.43536   2.46156   2.48905   2.51272   2.54828
 Alpha virt. eigenvalues --    2.57572   2.59322   2.62936   2.64944   2.66259
 Alpha virt. eigenvalues --    2.68015   2.72102   2.73294   2.74374   2.76458
 Alpha virt. eigenvalues --    2.77999   2.79497   2.81044   2.83044   2.85538
 Alpha virt. eigenvalues --    2.88492   2.91377   2.93300   2.95449   2.97149
 Alpha virt. eigenvalues --    3.00860   3.02688   3.05091   3.06774   3.09715
 Alpha virt. eigenvalues --    3.12407   3.15295   3.19908   3.21831   3.26233
 Alpha virt. eigenvalues --    3.27827   3.28247   3.34250   3.35762   3.40259
 Alpha virt. eigenvalues --    3.43035   3.45196   3.50799   3.52033   3.53203
 Alpha virt. eigenvalues --    3.54573   3.57672   3.62198   3.68097   3.71920
 Alpha virt. eigenvalues --    3.78785   3.82070   3.85002   3.89294   3.90656
 Alpha virt. eigenvalues --    3.93647   3.99046   4.09877   4.11568   4.17169
 Alpha virt. eigenvalues --    4.19168   4.20882   4.24977   4.27938   4.34973
 Alpha virt. eigenvalues --    4.40360   4.45202   4.49586   4.53564   4.55888
 Alpha virt. eigenvalues --    4.69366   4.75862   4.81224   4.91802   5.01618
 Alpha virt. eigenvalues --    5.03741   5.08216   5.12057   5.15215   5.18777
 Alpha virt. eigenvalues --    5.29536   5.35428   5.38300   5.43225   5.48399
 Alpha virt. eigenvalues --    5.50087   5.52531   5.52750   5.62305   5.64489
 Alpha virt. eigenvalues --    5.70032   5.70825   5.73915   5.75532   5.76851
 Alpha virt. eigenvalues --    5.77536   5.78484   5.80194   5.82060   5.87590
 Alpha virt. eigenvalues --    5.92776   5.96196   5.98040   6.00457   6.03303
 Alpha virt. eigenvalues --    6.07164   6.09005   6.12094   6.14198   6.20170
 Alpha virt. eigenvalues --    6.21575   6.23958   6.26405   6.32314   6.37231
 Alpha virt. eigenvalues --    6.39192   6.43025   6.45055   6.48878   6.54828
 Alpha virt. eigenvalues --    6.60695   6.63088   6.64124   6.67042   6.68878
 Alpha virt. eigenvalues --    6.72898   6.77783   6.78466   6.82420   6.89636
 Alpha virt. eigenvalues --    6.94621   6.98170   7.01226   7.02197   7.06575
 Alpha virt. eigenvalues --    7.11529   7.19107   7.20993   7.21646   7.24445
 Alpha virt. eigenvalues --    7.28792   7.30707   7.31786   7.32719   7.36488
 Alpha virt. eigenvalues --    7.38805   7.45518   7.46762   7.49155   7.50529
 Alpha virt. eigenvalues --    7.51345   7.56024   7.59294   7.61761   7.63275
 Alpha virt. eigenvalues --    7.68302   7.71895   7.73115   7.77949   7.81084
 Alpha virt. eigenvalues --    7.82701   7.85081   7.87669   7.91887   7.95661
 Alpha virt. eigenvalues --    8.01534   8.02614   8.06300   8.07701   8.14383
 Alpha virt. eigenvalues --    8.15726   8.16789   8.19566   8.22579   8.24839
 Alpha virt. eigenvalues --    8.27820   8.30425   8.32711   8.35154   8.37301
 Alpha virt. eigenvalues --    8.45004   8.49490   8.53527   8.57355   8.58991
 Alpha virt. eigenvalues --    8.62936   8.69590   8.71456   8.73246   8.76668
 Alpha virt. eigenvalues --    8.80840   8.84723   8.86317   8.88685   8.90986
 Alpha virt. eigenvalues --    8.93266   8.99029   9.01826   9.04530   9.13270
 Alpha virt. eigenvalues --    9.19126   9.24008   9.34221   9.38943   9.44548
 Alpha virt. eigenvalues --    9.51830   9.57506   9.60724   9.63701   9.66291
 Alpha virt. eigenvalues --    9.67946   9.71855   9.83218   9.87262   9.89181
 Alpha virt. eigenvalues --    9.99998  10.05852  10.09927  10.15941  10.27363
 Alpha virt. eigenvalues --   10.28969  10.42063  10.50984  10.66411  10.94952
 Alpha virt. eigenvalues --   10.96719  11.16558  11.23130  11.32890  11.37598
 Alpha virt. eigenvalues --   11.39859  11.48957  11.54962  11.66831  11.73698
 Alpha virt. eigenvalues --   11.79958  11.85435  11.94154  12.02909  12.04452
 Alpha virt. eigenvalues --   12.18802  12.32786  12.92551  13.10145  13.34216
 Alpha virt. eigenvalues --   14.04669  14.23411  14.37634  14.77717  28.46695
 Alpha virt. eigenvalues --   29.09089  38.20788  48.22392 145.90370 146.59512
 Alpha virt. eigenvalues --  195.79204 251.31568
          Condensed to atoms (all electrons):
               1          2          3          4          5          6
     1  C    5.609380   0.292467  -0.080296  -0.080298  -0.003158  -0.002223
     2  C    0.292467   4.355569   0.485321   0.551294  -0.009735  -0.038432
     3  O   -0.080296   0.485321   8.183069  -0.087622   0.021162   0.012674
     4  N   -0.080298   0.551294  -0.087622   6.580641   0.328380   0.344068
     5  H   -0.003158  -0.009735   0.021162   0.328380   0.337183  -0.040847
     6  H   -0.002223  -0.038432   0.012674   0.344068  -0.040847   0.399838
     7  H    0.345596  -0.062633   0.001377  -0.000158  -0.001497  -0.006907
     8  H    0.371077  -0.050383   0.001223  -0.006487  -0.003052   0.003067
     9  H    0.362044  -0.025119  -0.005425  -0.000740   0.000629  -0.005198
               7          8          9
     1  C    0.345596   0.371077   0.362044
     2  C   -0.062633  -0.050383  -0.025119
     3  O    0.001377   0.001223  -0.005425
     4  N   -0.000158  -0.006487  -0.000740
     5  H   -0.001497  -0.003052   0.000629
     6  H   -0.006907   0.003067  -0.005198
     7  H    0.466266  -0.008610  -0.008870
     8  H   -0.008610   0.488423  -0.027552
     9  H   -0.008870  -0.027552   0.449356
 Mulliken charges:
               1
     1  C   -0.814590
     2  C    0.501652
     3  O   -0.531483
     4  N   -0.629079
     5  H    0.370935
     6  H    0.333959
     7  H    0.275437
     8  H    0.232293
     9  H    0.260876
 Sum of Mulliken charges =  -0.00000
 Mulliken charges with hydrogens summed into heavy atoms:
               1
     1  C   -0.045985
     2  C    0.501652
     3  O   -0.531483
     4  N    0.075815
 Electronic spatial extent (au):  <R**2>=            268.2920
 Charge=             -0.0000 electrons
 Dipole moment (field-independent basis, Debye):
    X=             -0.2450    Y=             -4.3001    Z=              0.2342  Tot=              4.3134
 Quadrupole moment (field-independent basis, Debye-Ang):
   XX=            -20.4211   YY=            -26.5893   ZZ=            -25.2582
   XY=             -2.6451   XZ=              0.5536   YZ=             -0.1206
 Traceless Quadrupole moment (field-independent basis, Debye-Ang):
   XX=              3.6684   YY=             -2.4998   ZZ=             -1.1686
   XY=             -2.6451   XZ=              0.5536   YZ=             -0.1206
 Octapole moment (field-independent basis, Debye-Ang**2):
  XXX=             10.5390  YYY=            -13.2777  ZZZ=              0.9387  XYY=              0.8055
  XXY=             -2.2713  XXZ=              1.1531  XZZ=             -0.7426  YZZ=              0.9426
  YYZ=             -0.7245  XYZ=             -0.1341
 Hexadecapole moment (field-independent basis, Debye-Ang**3):
 XXXX=           -153.4735 YYYY=           -129.8043 ZZZZ=            -31.7146 XXXY=            -10.1996
 XXXZ=              3.6045 YYYX=             -7.7664 YYYZ=              1.0873 ZZZX=             -1.0073
 ZZZY=             -0.4966 XXYY=            -51.0741 XXZZ=            -34.7402 YYZZ=            -29.3997
 XXYZ=             -1.4531 YYXZ=              1.2834 ZZXY=              0.9211
 N-N= 1.215765027403D+02 E-N=-7.326752439720D+02  KE= 2.083055173743D+02
 PrsmSu:  requested number of processors reduced to:  21 ShMem   1 Linda.
 No NMR shielding tensors so no spin-rotation constants.
 Leave Link  601 at Sat Apr 17 05:06:28 2021, MaxMem=   104857600 cpu:             225.5 elap:               5.0
 (Enter /s/ls4/users/knvvv/bin/g16sse/l801.exe)
 DoSCS=F DFT=T ScalE2(SS,OS)=  1.000000  1.000000
 Range of M.O.s used for correlation:     1   418
 NBasis=   420 NAE=    16 NBE=    16 NFC=     0 NFV=     0
 NROrb=    418 NOA=    16 NOB=    16 NVA=   402 NVB=   402

 **** Warning!!: The largest alpha MO coefficient is  0.83401769D+02

 Leave Link  801 at Sat Apr 17 05:06:29 2021, MaxMem=   104857600 cpu:               4.1 elap:               0.1
 (Enter /s/ls4/users/knvvv/bin/g16sse/l914.exe)
 RHF ground state
 Doing stability rather than CIS.
 Two-electron integrals replicated using symmetry.
 MDV=   104857600 DFT=T DoStab=T Mixed=T DoRPA=F DoScal=F NonHer=F
 Making orbital integer symmetry assigments:
 Orbital symmetries:
       Occupied  (A) (A) (A) (A) (A) (A) (A) (A) (A) (A) (A) (A)
                 (A) (A) (A) (A)
       Virtual   (A) (A) (A) (A) (A) (A) (A) (A) (A) (A) (A) (A)
                 (A) (A) (A) (A) (A) (A) (A) (A) (A) (A) (A) (A)
                 (A) (A) (A) (A) (A) (A) (A) (A) (A) (A) (A) (A)
                 (A) (A) (A) (A) (A) (A) (A) (A) (A) (A) (A) (A)
                 (A) (A) (A) (A) (A) (A) (A) (A) (A) (A) (A) (A)
                 (A) (A) (A) (A) (A) (A) (A) (A) (A) (A) (A) (A)
                 (A) (A) (A) (A) (A) (A) (A) (A) (A) (A) (A) (A)
                 (A) (A) (A) (A) (A) (A) (A) (A) (A) (A) (A) (A)
                 (A) (A) (A) (A) (A) (A) (A) (A) (A) (A) (A) (A)
                 (A) (A) (A) (A) (A) (A) (A) (A) (A) (A) (A) (A)
                 (A) (A) (A) (A) (A) (A) (A) (A) (A) (A) (A) (A)
                 (A) (A) (A) (A) (A) (A) (A) (A) (A) (A) (A) (A)
                 (A) (A) (A) (A) (A) (A) (A) (A) (A) (A) (A) (A)
                 (A) (A) (A) (A) (A) (A) (A) (A) (A) (A) (A) (A)
                 (A) (A) (A) (A) (A) (A) (A) (A) (A) (A) (A) (A)
                 (A) (A) (A) (A) (A) (A) (A) (A) (A) (A) (A) (A)
                 (A) (A) (A) (A) (A) (A) (A) (A) (A) (A) (A) (A)
                 (A) (A) (A) (A) (A) (A) (A) (A) (A) (A) (A) (A)
                 (A) (A) (A) (A) (A) (A) (A) (A) (A) (A) (A) (A)
                 (A) (A) (A) (A) (A) (A) (A) (A) (A) (A) (A) (A)
                 (A) (A) (A) (A) (A) (A) (A) (A) (A) (A) (A) (A)
                 (A) (A) (A) (A) (A) (A) (A) (A) (A) (A) (A) (A)
                 (A) (A) (A) (A) (A) (A) (A) (A) (A) (A) (A) (A)
                 (A) (A) (A) (A) (A) (A) (A) (A) (A) (A) (A) (A)
                 (A) (A) (A) (A) (A) (A) (A) (A) (A) (A) (A) (A)
                 (A) (A) (A) (A) (A) (A) (A) (A) (A) (A) (A) (A)
                 (A) (A) (A) (A) (A) (A) (A) (A) (A) (A) (A) (A)
                 (A) (A) (A) (A) (A) (A) (A) (A) (A) (A) (A) (A)
                 (A) (A) (A) (A) (A) (A) (A) (A) (A) (A) (A) (A)
                 (A) (A) (A) (A) (A) (A) (A) (A) (A) (A) (A) (A)
                 (A) (A) (A) (A) (A) (A) (A) (A) (A) (A) (A) (A)
                 (A) (A) (A) (A) (A) (A) (A) (A) (A) (A) (A) (A)
                 (A) (A) (A) (A) (A) (A) (A) (A) (A) (A) (A) (A)
                 (A) (A) (A) (A) (A) (A)
    24 initial guesses have been made.
 Convergence on wavefunction:    0.001000000000000
 Davidson Disk Diagonalization:  ConvIn= 1.00D-03 SkipCon=T Conv= 1.00D-03.
 Max sub-space:  2000 roots to seek:    24 dimension of matrix:        12864
 Iteration     1 Dimension    24 NMult     0 NNew     24
 Estimated number of processors is:   16
 CISAX will form     1 AO SS matrices at one time.
 NMat=     1 NSing=     1 JSym2X= 0.
 FoFJK:  IHMeth= 1 ICntrl=       0 DoSepK=F KAlg= 0 I1Cent=           0 FoldK=F
 IRaf= 980000000 NMat=       1 IRICut=       1 DoRegI=T DoRafI=F ISym2E= 0 IDoP0=0 IntGTp=1.
 FoFCou: FMM=F IPFlag=           0 FMFlag=      100000 FMFlg1=           0
         NFxFlg=           0 DoJE=F BraDBF=F KetDBF=F FulRan=T
         wScrn=  0.000000 ICntrl=         0 IOpCl=  0 I1Cent=           0 NGrid=           0
         NMat0=    1 NMatS0=      1 NMatT0=    0 NMatD0=    1 NMtDS0=    0 NMtDT0=    0
 Symmetry not used in FoFCou.
 CoulSu:  requested number of processors reduced to:  20 ShMem   1 Linda.
 NMat=     1 NSing=     1 JSym2X= 0.
 CoulSu:  requested number of processors reduced to:  20 ShMem   1 Linda.
 NMat=     1 NSing=     1 JSym2X= 0.
 CoulSu:  requested number of processors reduced to:  20 ShMem   1 Linda.
 NMat=     1 NSing=     1 JSym2X= 0.
 CoulSu:  requested number of processors reduced to:  20 ShMem   1 Linda.
 NMat=     1 NSing=     1 JSym2X= 0.
 CoulSu:  requested number of processors reduced to:  20 ShMem   1 Linda.
 NMat=     1 NSing=     1 JSym2X= 0.
 CoulSu:  requested number of processors reduced to:  20 ShMem   1 Linda.
 NMat=     1 NSing=     1 JSym2X= 0.
 CoulSu:  requested number of processors reduced to:  20 ShMem   1 Linda.
 NMat=     1 NSing=     1 JSym2X= 0.
 CoulSu:  requested number of processors reduced to:  20 ShMem   1 Linda.
 NMat=     1 NSing=     1 JSym2X= 0.
 CoulSu:  requested number of processors reduced to:  20 ShMem   1 Linda.
 NMat=     1 NSing=     1 JSym2X= 0.
 CoulSu:  requested number of processors reduced to:  20 ShMem   1 Linda.
 NMat=     1 NSing=     1 JSym2X= 0.
 CoulSu:  requested number of processors reduced to:  20 ShMem   1 Linda.
 NMat=     1 NSing=     1 JSym2X= 0.
 CoulSu:  requested number of processors reduced to:  20 ShMem   1 Linda.
 NMat=     1 NSing=     0 JSym2X= 0.
 CoulSu:  requested number of processors reduced to:  20 ShMem   1 Linda.
 NMat=     1 NSing=     0 JSym2X= 0.
 CoulSu:  requested number of processors reduced to:  20 ShMem   1 Linda.
 NMat=     1 NSing=     0 JSym2X= 0.
 CoulSu:  requested number of processors reduced to:  20 ShMem   1 Linda.
 NMat=     1 NSing=     0 JSym2X= 0.
 CoulSu:  requested number of processors reduced to:  20 ShMem   1 Linda.
 NMat=     1 NSing=     0 JSym2X= 0.
 CoulSu:  requested number of processors reduced to:  20 ShMem   1 Linda.
 NMat=     1 NSing=     0 JSym2X= 0.
 CoulSu:  requested number of processors reduced to:  20 ShMem   1 Linda.
 NMat=     1 NSing=     0 JSym2X= 0.
 CoulSu:  requested number of processors reduced to:  20 ShMem   1 Linda.
 NMat=     1 NSing=     0 JSym2X= 0.
 CoulSu:  requested number of processors reduced to:  20 ShMem   1 Linda.
 NMat=     1 NSing=     0 JSym2X= 0.
 CoulSu:  requested number of processors reduced to:  20 ShMem   1 Linda.
 NMat=     1 NSing=     0 JSym2X= 0.
 CoulSu:  requested number of processors reduced to:  20 ShMem   1 Linda.
 NMat=     1 NSing=     0 JSym2X= 0.
 CoulSu:  requested number of processors reduced to:  20 ShMem   1 Linda.
 NMat=     1 NSing=     0 JSym2X= 0.
 CoulSu:  requested number of processors reduced to:  20 ShMem   1 Linda.
 New state      1 was old state      8
 Excitation Energies [eV] at current iteration:
 Root      1 :     5.758507988412444
 Root      2 :     6.346892931980978
 Root      3 :     6.811950112292702
 Root      4 :     6.875256933175208
 Root      5 :     6.896690939707858
 Root      6 :     7.064528347715824
 Root      7 :     7.067832182103418
 Root      8 :     7.715637069142028
 Root      9 :     7.826858229686851
 Root     10 :     8.007477958109023
 Root     11 :     8.028885274008221
 Root     12 :     8.032514247012339
 Root     13 :     8.084038000872480
 Root     14 :     8.311817762335291
 Root     15 :     8.335953333991142
 Root     16 :     8.345315154854628
 Root     17 :     8.372355446971426
 Root     18 :     8.591624003968731
 Root     19 :     8.665087938347176
 Root     20 :     8.897906517924895
 Root     21 :     8.904405079981400
 Root     22 :     8.977089167785579
 Root     23 :     9.050365295014775
 Root     24 :     9.763280837563233
 Iteration     2 Dimension    48 NMult    24 NNew     24
 Estimated number of processors is:   16
 CISAX will form     1 AO SS matrices at one time.
 NMat=     1 NSing=     1 JSym2X= 0.
 CoulSu:  requested number of processors reduced to:  20 ShMem   1 Linda.
 NMat=     1 NSing=     1 JSym2X= 0.
 CoulSu:  requested number of processors reduced to:  20 ShMem   1 Linda.
 NMat=     1 NSing=     1 JSym2X= 0.
 CoulSu:  requested number of processors reduced to:  20 ShMem   1 Linda.
 NMat=     1 NSing=     1 JSym2X= 0.
 CoulSu:  requested number of processors reduced to:  20 ShMem   1 Linda.
 NMat=     1 NSing=     1 JSym2X= 0.
 CoulSu:  requested number of processors reduced to:  20 ShMem   1 Linda.
 NMat=     1 NSing=     1 JSym2X= 0.
 CoulSu:  requested number of processors reduced to:  20 ShMem   1 Linda.
 NMat=     1 NSing=     1 JSym2X= 0.
 CoulSu:  requested number of processors reduced to:  20 ShMem   1 Linda.
 NMat=     1 NSing=     1 JSym2X= 0.
 CoulSu:  requested number of processors reduced to:  20 ShMem   1 Linda.
 NMat=     1 NSing=     1 JSym2X= 0.
 CoulSu:  requested number of processors reduced to:  20 ShMem   1 Linda.
 NMat=     1 NSing=     1 JSym2X= 0.
 CoulSu:  requested number of processors reduced to:  20 ShMem   1 Linda.
 NMat=     1 NSing=     1 JSym2X= 0.
 CoulSu:  requested number of processors reduced to:  20 ShMem   1 Linda.
 NMat=     1 NSing=     1 JSym2X= 0.
 CoulSu:  requested number of processors reduced to:  20 ShMem   1 Linda.
 NMat=     1 NSing=     0 JSym2X= 0.
 CoulSu:  requested number of processors reduced to:  20 ShMem   1 Linda.
 NMat=     1 NSing=     0 JSym2X= 0.
 CoulSu:  requested number of processors reduced to:  20 ShMem   1 Linda.
 NMat=     1 NSing=     0 JSym2X= 0.
 CoulSu:  requested number of processors reduced to:  20 ShMem   1 Linda.
 NMat=     1 NSing=     0 JSym2X= 0.
 CoulSu:  requested number of processors reduced to:  20 ShMem   1 Linda.
 NMat=     1 NSing=     0 JSym2X= 0.
 CoulSu:  requested number of processors reduced to:  20 ShMem   1 Linda.
 NMat=     1 NSing=     0 JSym2X= 0.
 CoulSu:  requested number of processors reduced to:  20 ShMem   1 Linda.
 NMat=     1 NSing=     0 JSym2X= 0.
 CoulSu:  requested number of processors reduced to:  20 ShMem   1 Linda.
 NMat=     1 NSing=     0 JSym2X= 0.
 CoulSu:  requested number of processors reduced to:  20 ShMem   1 Linda.
 NMat=     1 NSing=     0 JSym2X= 0.
 CoulSu:  requested number of processors reduced to:  20 ShMem   1 Linda.
 NMat=     1 NSing=     0 JSym2X= 0.
 CoulSu:  requested number of processors reduced to:  20 ShMem   1 Linda.
 NMat=     1 NSing=     0 JSym2X= 0.
 CoulSu:  requested number of processors reduced to:  20 ShMem   1 Linda.
 NMat=     1 NSing=     0 JSym2X= 0.
 CoulSu:  requested number of processors reduced to:  20 ShMem   1 Linda.
 New state      1 was old state      3
 Root      1 not converged, maximum delta is    0.470860682243180
 Excitation Energies [eV] at current iteration:
 Root      1 :     4.321496242363386   Change is   -2.490453869929316
 Root      2 :     4.839076927568830   Change is   -0.919431060843614
 Root      3 :     5.758761883633855   Change is   -0.588131048347124
 Root      4 :     6.648354263744744   Change is   -0.226902669430464
 Root      5 :     6.702243745191796   Change is   -0.365588436911622
 Root      6 :     6.773122630403276   Change is   -0.123568309304582
 Root      7 :     6.898064038299640   Change is   -0.166464309416185
 Root      8 :     7.553830549653004   Change is   -0.161806519489023
 Root      9 :     7.639460370998936   Change is   -0.187397858687915
 Root     10 :     7.828134253863095   Change is   -0.200751020145125
 Root     11 :     7.866697063045302   Change is   -0.140780895063721
 Root     12 :     7.906526413656550   Change is   -0.125987833355788
 Root     13 :     7.984452908358508   Change is   -0.099585092513973
 Root     14 :     8.055655922822966   Change is   -0.256161839512326
 Root     15 :     8.114415384881768   Change is   -0.221537949109374
 Root     16 :     8.193344826726362   Change is   -0.151970328128268
 Root     17 :     8.254694829441625   Change is   -0.117660617529800
 Root     18 :     8.364549727752488   Change is   -1.398731109810745
 Root     19 :     8.412652757167624   Change is   -0.178971246801107
 Root     20 :     8.551971609621878   Change is   -0.113116328725297
 Root     21 :     8.674478491940670   Change is   -0.223428025984225
 Root     22 :     8.756216083117895   Change is   -0.148188996863505
 Root     23 :     8.828875838904452   Change is   -0.148213328881127
 Root     24 :     8.941910506398047   Change is   -0.108454788616728
 Iteration     3 Dimension    54 NMult    48 NNew      6
 Estimated number of processors is:   16
 CISAX will form     1 AO SS matrices at one time.
 NMat=     1 NSing=     1 JSym2X= 0.
 CoulSu:  requested number of processors reduced to:  20 ShMem   1 Linda.
 NMat=     1 NSing=     1 JSym2X= 0.
 CoulSu:  requested number of processors reduced to:  20 ShMem   1 Linda.
 NMat=     1 NSing=     1 JSym2X= 0.
 CoulSu:  requested number of processors reduced to:  20 ShMem   1 Linda.
 NMat=     1 NSing=     0 JSym2X= 0.
 CoulSu:  requested number of processors reduced to:  20 ShMem   1 Linda.
 NMat=     1 NSing=     0 JSym2X= 0.
 CoulSu:  requested number of processors reduced to:  20 ShMem   1 Linda.
 NMat=     1 NSing=     0 JSym2X= 0.
 CoulSu:  requested number of processors reduced to:  20 ShMem   1 Linda.
 Root      1 not converged, maximum delta is    0.027228637981223
 Excitation Energies [eV] at current iteration:
 Root      1 :     4.071074387925829   Change is   -0.250421854437557
 Root      2 :     4.810077112751977   Change is   -0.028999814816853
 Root      3 :     5.656571085627352   Change is   -0.102190798006503
 Root      4 :     6.607800546695156   Change is   -0.040553717049588
 Root      5 :     6.757632053421289   Change is   -0.015490576981987
 Root      6 :     6.886403409280574   Change is   -0.011660629019065
 Iteration     4 Dimension    60 NMult    54 NNew      6
 Estimated number of processors is:   16
 CISAX will form     1 AO SS matrices at one time.
 NMat=     1 NSing=     1 JSym2X= 0.
 CoulSu:  requested number of processors reduced to:  20 ShMem   1 Linda.
 NMat=     1 NSing=     1 JSym2X= 0.
 CoulSu:  requested number of processors reduced to:  20 ShMem   1 Linda.
 NMat=     1 NSing=     1 JSym2X= 0.
 CoulSu:  requested number of processors reduced to:  20 ShMem   1 Linda.
 NMat=     1 NSing=     0 JSym2X= 0.
 CoulSu:  requested number of processors reduced to:  20 ShMem   1 Linda.
 NMat=     1 NSing=     0 JSym2X= 0.
 CoulSu:  requested number of processors reduced to:  20 ShMem   1 Linda.
 NMat=     1 NSing=     0 JSym2X= 0.
 CoulSu:  requested number of processors reduced to:  20 ShMem   1 Linda.
 Root      1 not converged, maximum delta is    0.014423795168008
 Excitation Energies [eV] at current iteration:
 Root      1 :     4.043845499629177   Change is   -0.027228888296651
 Root      2 :     4.808693025627282   Change is   -0.001384087124695
 Root      3 :     5.649627494212786   Change is   -0.006943591414566
 Root      4 :     6.603969686439453   Change is   -0.003830860255703
 Root      5 :     6.753792658701028   Change is   -0.003839394720261
 Root      6 :     6.885148138102970   Change is   -0.001255271177604
 Iteration     5 Dimension    66 NMult    60 NNew      6
 Estimated number of processors is:   16
 CISAX will form     1 AO SS matrices at one time.
 NMat=     1 NSing=     1 JSym2X= 0.
 CoulSu:  requested number of processors reduced to:  20 ShMem   1 Linda.
 NMat=     1 NSing=     1 JSym2X= 0.
 CoulSu:  requested number of processors reduced to:  20 ShMem   1 Linda.
 NMat=     1 NSing=     1 JSym2X= 0.
 CoulSu:  requested number of processors reduced to:  20 ShMem   1 Linda.
 NMat=     1 NSing=     0 JSym2X= 0.
 CoulSu:  requested number of processors reduced to:  20 ShMem   1 Linda.
 NMat=     1 NSing=     0 JSym2X= 0.
 CoulSu:  requested number of processors reduced to:  20 ShMem   1 Linda.
 NMat=     1 NSing=     0 JSym2X= 0.
 CoulSu:  requested number of processors reduced to:  20 ShMem   1 Linda.
 Root      1 not converged, maximum delta is    0.008570960166355
 Excitation Energies [eV] at current iteration:
 Root      1 :     4.039591332863149   Change is   -0.004254166766028
 Root      2 :     4.808597087138240   Change is   -0.000095938489042
 Root      3 :     5.648946522758528   Change is   -0.000680971454258
 Root      4 :     6.603303928263944   Change is   -0.000665758175508
 Root      5 :     6.752789979601221   Change is   -0.001002679099807
 Root      6 :     6.884941352392384   Change is   -0.000206785710586
 Iteration     6 Dimension    72 NMult    66 NNew      6
 Estimated number of processors is:   16
 CISAX will form     1 AO SS matrices at one time.
 NMat=     1 NSing=     1 JSym2X= 0.
 CoulSu:  requested number of processors reduced to:  20 ShMem   1 Linda.
 NMat=     1 NSing=     1 JSym2X= 0.
 CoulSu:  requested number of processors reduced to:  20 ShMem   1 Linda.
 NMat=     1 NSing=     1 JSym2X= 0.
 CoulSu:  requested number of processors reduced to:  20 ShMem   1 Linda.
 NMat=     1 NSing=     0 JSym2X= 0.
 CoulSu:  requested number of processors reduced to:  20 ShMem   1 Linda.
 NMat=     1 NSing=     0 JSym2X= 0.
 CoulSu:  requested number of processors reduced to:  20 ShMem   1 Linda.
 NMat=     1 NSing=     0 JSym2X= 0.
 CoulSu:  requested number of processors reduced to:  20 ShMem   1 Linda.
 Root      1 not converged, maximum delta is    0.001815969413990
 Excitation Energies [eV] at current iteration:
 Root      1 :     4.039078214037095   Change is   -0.000513118826055
 Root      2 :     4.808587343028267   Change is   -0.000009744109973
 Root      3 :     5.648912064679448   Change is   -0.000034458079081
 Root      4 :     6.603107820598563   Change is   -0.000196107665381
 Root      5 :     6.752642871140952   Change is   -0.000147108460269
 Root      6 :     6.884906165888296   Change is   -0.000035186504089
 Iteration     7 Dimension    78 NMult    72 NNew      6
 Estimated number of processors is:   16
 CISAX will form     1 AO SS matrices at one time.
 NMat=     1 NSing=     1 JSym2X= 0.
 CoulSu:  requested number of processors reduced to:  20 ShMem   1 Linda.
 NMat=     1 NSing=     1 JSym2X= 0.
 CoulSu:  requested number of processors reduced to:  20 ShMem   1 Linda.
 NMat=     1 NSing=     1 JSym2X= 0.
 CoulSu:  requested number of processors reduced to:  20 ShMem   1 Linda.
 NMat=     1 NSing=     0 JSym2X= 0.
 CoulSu:  requested number of processors reduced to:  20 ShMem   1 Linda.
 NMat=     1 NSing=     0 JSym2X= 0.
 CoulSu:  requested number of processors reduced to:  20 ShMem   1 Linda.
 NMat=     1 NSing=     0 JSym2X= 0.
 CoulSu:  requested number of processors reduced to:  20 ShMem   1 Linda.
 Root      1 has converged.
 Excitation Energies [eV] at current iteration:
 Root      1 :     4.039044296453676   Change is   -0.000033917583418
 Root      2 :     4.808586488833793   Change is   -0.000000854194474
 Root      3 :     5.648910023010048   Change is   -0.000002041669399
 Root      4 :     6.603076011980201   Change is   -0.000031808618363
 Root      5 :     6.752631358766809   Change is   -0.000011512374142
 Root      6 :     6.884902841864153   Change is   -0.000003324024143
 Convergence achieved on expansion vectors.
 ***********************************************************************
 Stability analysis using <AA,BB:AA,BB> singles matrix:
 ***********************************************************************
 1PDM for each excited state written to RWF  633
 Ground to excited state transition densities written to RWF  633

 Eigenvectors of the stability matrix:
 
 Eigenvector   1:      Triplet-A    Eigenvalue= 0.1484321  <S**2>=2.000
      15 -> 19         0.40899
      15 -> 20         0.19487
      15 -> 22        -0.38672
      15 -> 24         0.24122
 The wavefunction is stable under the perturbations considered.
 Leave Link  914 at Sat Apr 17 05:29:31 2021, MaxMem=   104857600 cpu:           50747.6 elap:            1382.1
 (Enter /s/ls4/users/knvvv/bin/g16sse/l508.exe)
 The wavefunction is already stable.
 Leave Link  508 at Sat Apr 17 05:29:31 2021, MaxMem=   104857600 cpu:               2.2 elap:               0.1
 (Enter /s/ls4/users/knvvv/bin/g16sse/l601.exe)
 Copying SCF densities to generalized density rwf, IOpCl= 0 IROHF=0.

 **********************************************************************

            Population analysis using the SCF density.

 **********************************************************************

 Orbital symmetries:
       Occupied  (A) (A) (A) (A) (A) (A) (A) (A) (A) (A) (A) (A)
                 (A) (A) (A) (A)
       Virtual   (A) (A) (A) (A) (A) (A) (A) (A) (A) (A) (A) (A)
                 (A) (A) (A) (A) (A) (A) (A) (A) (A) (A) (A) (A)
                 (A) (A) (A) (A) (A) (A) (A) (A) (A) (A) (A) (A)
                 (A) (A) (A) (A) (A) (A) (A) (A) (A) (A) (A) (A)
                 (A) (A) (A) (A) (A) (A) (A) (A) (A) (A) (A) (A)
                 (A) (A) (A) (A) (A) (A) (A) (A) (A) (A) (A) (A)
                 (A) (A) (A) (A) (A) (A) (A) (A) (A) (A) (A) (A)
                 (A) (A) (A) (A) (A) (A) (A) (A) (A) (A) (A) (A)
                 (A) (A) (A) (A) (A) (A) (A) (A) (A) (A) (A) (A)
                 (A) (A) (A) (A) (A) (A) (A) (A) (A) (A) (A) (A)
                 (A) (A) (A) (A) (A) (A) (A) (A) (A) (A) (A) (A)
                 (A) (A) (A) (A) (A) (A) (A) (A) (A) (A) (A) (A)
                 (A) (A) (A) (A) (A) (A) (A) (A) (A) (A) (A) (A)
                 (A) (A) (A) (A) (A) (A) (A) (A) (A) (A) (A) (A)
                 (A) (A) (A) (A) (A) (A) (A) (A) (A) (A) (A) (A)
                 (A) (A) (A) (A) (A) (A) (A) (A) (A) (A) (A) (A)
                 (A) (A) (A) (A) (A) (A) (A) (A) (A) (A) (A) (A)
                 (A) (A) (A) (A) (A) (A) (A) (A) (A) (A) (A) (A)
                 (A) (A) (A) (A) (A) (A) (A) (A) (A) (A) (A) (A)
                 (A) (A) (A) (A) (A) (A) (A) (A) (A) (A) (A) (A)
                 (A) (A) (A) (A) (A) (A) (A) (A) (A) (A) (A) (A)
                 (A) (A) (A) (A) (A) (A) (A) (A) (A) (A) (A) (A)
                 (A) (A) (A) (A) (A) (A) (A) (A) (A) (A) (A) (A)
                 (A) (A) (A) (A) (A) (A) (A) (A) (A) (A) (A) (A)
                 (A) (A) (A) (A) (A) (A) (A) (A) (A) (A) (A) (A)
                 (A) (A) (A) (A) (A) (A) (A) (A) (A) (A) (A) (A)
                 (A) (A) (A) (A) (A) (A) (A) (A) (A) (A) (A) (A)
                 (A) (A) (A) (A) (A) (A) (A) (A) (A) (A) (A) (A)
                 (A) (A) (A) (A) (A) (A) (A) (A) (A) (A) (A) (A)
                 (A) (A) (A) (A) (A) (A) (A) (A) (A) (A) (A) (A)
                 (A) (A) (A) (A) (A) (A) (A) (A) (A) (A) (A) (A)
                 (A) (A) (A) (A) (A) (A) (A) (A) (A) (A) (A) (A)
                 (A) (A) (A) (A) (A) (A) (A) (A) (A) (A) (A) (A)
                 (A) (A) (A) (A) (A) (A)
 The electronic state is 1-A.
 Alpha  occ. eigenvalues --  -19.58481 -14.78364 -10.65176 -10.54897  -1.14354
 Alpha  occ. eigenvalues --   -1.02252  -0.84045  -0.68302  -0.62241  -0.55212
 Alpha  occ. eigenvalues --   -0.52630  -0.47518  -0.47037  -0.44134  -0.34091
 Alpha  occ. eigenvalues --   -0.32835
 Alpha virt. eigenvalues --   -0.00060   0.02781   0.03842   0.04645   0.06293
 Alpha virt. eigenvalues --    0.07074   0.07734   0.07976   0.09528   0.10918
 Alpha virt. eigenvalues --    0.11973   0.13200   0.15589   0.15838   0.16728
 Alpha virt. eigenvalues --    0.17972   0.18142   0.19714   0.20851   0.21441
 Alpha virt. eigenvalues --    0.22515   0.24613   0.24981   0.25412   0.26341
 Alpha virt. eigenvalues --    0.26665   0.27219   0.28119   0.28890   0.29637
 Alpha virt. eigenvalues --    0.30133   0.31125   0.32131   0.32982   0.34325
 Alpha virt. eigenvalues --    0.34957   0.35474   0.36727   0.36890   0.36929
 Alpha virt. eigenvalues --    0.38478   0.39667   0.40693   0.41850   0.43120
 Alpha virt. eigenvalues --    0.44354   0.45546   0.47348   0.49106   0.49972
 Alpha virt. eigenvalues --    0.50197   0.51608   0.52669   0.53628   0.54011
 Alpha virt. eigenvalues --    0.56158   0.57456   0.58607   0.60799   0.62198
 Alpha virt. eigenvalues --    0.63260   0.63968   0.66298   0.67805   0.69311
 Alpha virt. eigenvalues --    0.70883   0.71668   0.73594   0.75924   0.79092
 Alpha virt. eigenvalues --    0.80097   0.81665   0.82633   0.84411   0.85226
 Alpha virt. eigenvalues --    0.86615   0.88955   0.89095   0.91202   0.91925
 Alpha virt. eigenvalues --    0.93623   0.95931   0.97141   1.00915   1.02805
 Alpha virt. eigenvalues --    1.04843   1.07338   1.08720   1.11087   1.15101
 Alpha virt. eigenvalues --    1.15744   1.16931   1.19032   1.20518   1.21467
 Alpha virt. eigenvalues --    1.22210   1.25725   1.27043   1.29145   1.31409
 Alpha virt. eigenvalues --    1.34282   1.37524   1.38862   1.42075   1.44621
 Alpha virt. eigenvalues --    1.46513   1.47625   1.48882   1.51727   1.53379
 Alpha virt. eigenvalues --    1.62848   1.66472   1.68432   1.70243   1.73294
 Alpha virt. eigenvalues --    1.74180   1.79500   1.81168   1.84378   1.87818
 Alpha virt. eigenvalues --    1.90626   1.92401   1.96232   1.97182   1.98336
 Alpha virt. eigenvalues --    2.03031   2.04585   2.06191   2.07730   2.09693
 Alpha virt. eigenvalues --    2.11270   2.13228   2.15475   2.16358   2.18913
 Alpha virt. eigenvalues --    2.20931   2.23238   2.25482   2.27537   2.30051
 Alpha virt. eigenvalues --    2.31216   2.35600   2.37993   2.39633   2.41212
 Alpha virt. eigenvalues --    2.43536   2.46156   2.48905   2.51272   2.54828
 Alpha virt. eigenvalues --    2.57572   2.59322   2.62936   2.64944   2.66259
 Alpha virt. eigenvalues --    2.68015   2.72102   2.73294   2.74374   2.76458
 Alpha virt. eigenvalues --    2.77999   2.79497   2.81044   2.83044   2.85538
 Alpha virt. eigenvalues --    2.88492   2.91377   2.93300   2.95449   2.97149
 Alpha virt. eigenvalues --    3.00860   3.02688   3.05091   3.06774   3.09715
 Alpha virt. eigenvalues --    3.12407   3.15295   3.19908   3.21831   3.26233
 Alpha virt. eigenvalues --    3.27827   3.28247   3.34250   3.35762   3.40259
 Alpha virt. eigenvalues --    3.43035   3.45196   3.50799   3.52033   3.53203
 Alpha virt. eigenvalues --    3.54573   3.57672   3.62198   3.68097   3.71920
 Alpha virt. eigenvalues --    3.78785   3.82070   3.85002   3.89294   3.90656
 Alpha virt. eigenvalues --    3.93647   3.99046   4.09877   4.11568   4.17169
 Alpha virt. eigenvalues --    4.19168   4.20882   4.24977   4.27938   4.34973
 Alpha virt. eigenvalues --    4.40360   4.45202   4.49586   4.53564   4.55888
 Alpha virt. eigenvalues --    4.69366   4.75862   4.81224   4.91802   5.01618
 Alpha virt. eigenvalues --    5.03741   5.08216   5.12057   5.15215   5.18777
 Alpha virt. eigenvalues --    5.29536   5.35428   5.38300   5.43225   5.48399
 Alpha virt. eigenvalues --    5.50087   5.52531   5.52750   5.62305   5.64489
 Alpha virt. eigenvalues --    5.70032   5.70825   5.73915   5.75532   5.76851
 Alpha virt. eigenvalues --    5.77536   5.78484   5.80194   5.82060   5.87590
 Alpha virt. eigenvalues --    5.92776   5.96196   5.98040   6.00457   6.03303
 Alpha virt. eigenvalues --    6.07164   6.09005   6.12094   6.14198   6.20170
 Alpha virt. eigenvalues --    6.21575   6.23958   6.26405   6.32314   6.37231
 Alpha virt. eigenvalues --    6.39192   6.43025   6.45055   6.48878   6.54828
 Alpha virt. eigenvalues --    6.60695   6.63088   6.64124   6.67042   6.68878
 Alpha virt. eigenvalues --    6.72898   6.77783   6.78466   6.82420   6.89636
 Alpha virt. eigenvalues --    6.94621   6.98170   7.01226   7.02197   7.06575
 Alpha virt. eigenvalues --    7.11529   7.19107   7.20993   7.21646   7.24445
 Alpha virt. eigenvalues --    7.28792   7.30707   7.31786   7.32719   7.36488
 Alpha virt. eigenvalues --    7.38805   7.45518   7.46762   7.49155   7.50529
 Alpha virt. eigenvalues --    7.51345   7.56024   7.59294   7.61761   7.63275
 Alpha virt. eigenvalues --    7.68302   7.71895   7.73115   7.77949   7.81084
 Alpha virt. eigenvalues --    7.82701   7.85081   7.87669   7.91887   7.95661
 Alpha virt. eigenvalues --    8.01534   8.02614   8.06300   8.07701   8.14383
 Alpha virt. eigenvalues --    8.15726   8.16789   8.19566   8.22579   8.24839
 Alpha virt. eigenvalues --    8.27820   8.30425   8.32711   8.35154   8.37301
 Alpha virt. eigenvalues --    8.45004   8.49490   8.53527   8.57355   8.58991
 Alpha virt. eigenvalues --    8.62936   8.69590   8.71456   8.73246   8.76668
 Alpha virt. eigenvalues --    8.80840   8.84723   8.86317   8.88685   8.90986
 Alpha virt. eigenvalues --    8.93266   8.99029   9.01826   9.04530   9.13270
 Alpha virt. eigenvalues --    9.19126   9.24008   9.34221   9.38943   9.44548
 Alpha virt. eigenvalues --    9.51830   9.57506   9.60724   9.63701   9.66291
 Alpha virt. eigenvalues --    9.67946   9.71855   9.83218   9.87262   9.89181
 Alpha virt. eigenvalues --    9.99998  10.05852  10.09927  10.15941  10.27363
 Alpha virt. eigenvalues --   10.28969  10.42063  10.50984  10.66411  10.94952
 Alpha virt. eigenvalues --   10.96719  11.16558  11.23130  11.32890  11.37598
 Alpha virt. eigenvalues --   11.39859  11.48957  11.54962  11.66831  11.73698
 Alpha virt. eigenvalues --   11.79958  11.85435  11.94154  12.02909  12.04452
 Alpha virt. eigenvalues --   12.18802  12.32786  12.92551  13.10145  13.34216
 Alpha virt. eigenvalues --   14.04669  14.23411  14.37634  14.77717  28.46695
 Alpha virt. eigenvalues --   29.09089  38.20788  48.22392 145.90370 146.59512
 Alpha virt. eigenvalues --  195.79204 251.31568
          Condensed to atoms (all electrons):
               1          2          3          4          5          6
     1  C    5.609380   0.292467  -0.080296  -0.080298  -0.003158  -0.002223
     2  C    0.292467   4.355569   0.485321   0.551294  -0.009735  -0.038432
     3  O   -0.080296   0.485321   8.183069  -0.087622   0.021162   0.012674
     4  N   -0.080298   0.551294  -0.087622   6.580641   0.328380   0.344068
     5  H   -0.003158  -0.009735   0.021162   0.328380   0.337183  -0.040847
     6  H   -0.002223  -0.038432   0.012674   0.344068  -0.040847   0.399838
     7  H    0.345596  -0.062633   0.001377  -0.000158  -0.001497  -0.006907
     8  H    0.371077  -0.050383   0.001223  -0.006487  -0.003052   0.003067
     9  H    0.362044  -0.025119  -0.005425  -0.000740   0.000629  -0.005198
               7          8          9
     1  C    0.345596   0.371077   0.362044
     2  C   -0.062633  -0.050383  -0.025119
     3  O    0.001377   0.001223  -0.005425
     4  N   -0.000158  -0.006487  -0.000740
     5  H   -0.001497  -0.003052   0.000629
     6  H   -0.006907   0.003067  -0.005198
     7  H    0.466266  -0.008610  -0.008870
     8  H   -0.008610   0.488423  -0.027552
     9  H   -0.008870  -0.027552   0.449356
 Mulliken charges:
               1
     1  C   -0.814590
     2  C    0.501652
     3  O   -0.531483
     4  N   -0.629079
     5  H    0.370935
     6  H    0.333959
     7  H    0.275437
     8  H    0.232293
     9  H    0.260876
 Sum of Mulliken charges =  -0.00000
 Mulliken charges with hydrogens summed into heavy atoms:
               1
     1  C   -0.045985
     2  C    0.501652
     3  O   -0.531483
     4  N    0.075815
 Electronic spatial extent (au):  <R**2>=            268.2920
 Charge=             -0.0000 electrons
 Dipole moment (field-independent basis, Debye):
    X=             -0.2450    Y=             -4.3001    Z=              0.2342  Tot=              4.3134
 Quadrupole moment (field-independent basis, Debye-Ang):
   XX=            -20.4211   YY=            -26.5893   ZZ=            -25.2582
   XY=             -2.6451   XZ=              0.5536   YZ=             -0.1206
 Traceless Quadrupole moment (field-independent basis, Debye-Ang):
   XX=              3.6684   YY=             -2.4998   ZZ=             -1.1686
   XY=             -2.6451   XZ=              0.5536   YZ=             -0.1206
 Octapole moment (field-independent basis, Debye-Ang**2):
  XXX=             10.5390  YYY=            -13.2777  ZZZ=              0.9387  XYY=              0.8055
  XXY=             -2.2713  XXZ=              1.1531  XZZ=             -0.7426  YZZ=              0.9426
  YYZ=             -0.7245  XYZ=             -0.1341
 Hexadecapole moment (field-independent basis, Debye-Ang**3):
 XXXX=           -153.4735 YYYY=           -129.8043 ZZZZ=            -31.7146 XXXY=            -10.1996
 XXXZ=              3.6045 YYYX=             -7.7664 YYYZ=              1.0873 ZZZX=             -1.0073
 ZZZY=             -0.4966 XXYY=            -51.0741 XXZZ=            -34.7402 YYZZ=            -29.3997
 XXYZ=             -1.4531 YYXZ=              1.2834 ZZXY=              0.9211
 N-N= 1.215765027403D+02 E-N=-7.326752439720D+02  KE= 2.083055173743D+02
 PrsmSu:  requested number of processors reduced to:  21 ShMem   1 Linda.
 No NMR shielding tensors so no spin-rotation constants.
 Leave Link  601 at Sat Apr 17 05:29:35 2021, MaxMem=   104857600 cpu:             194.5 elap:               4.3
 (Enter /s/ls4/users/knvvv/bin/g16sse/l9999.exe)

 Test job not archived.
 1\1\GINC-N185\Stability\RM062X\Gen\C2H5N1O1\KNVVV\17-Apr-2021\0\\#P M0
 62X/GEN Integral=UltraFineGrid SCF=NoSymm Stable=(RExt, Opt) IOp(1/33=
 1)\\Database calculations.\\0,1\C,0,12.496918,4.616868,11.215224\C,0,1
 3.320837,3.351094,11.242769\O,0,14.447857,3.312678,10.705431\N,0,12.80
 7604,2.310076,11.897167\H,0,13.380595,1.4904,12.107694\H,0,11.879165,2
 .376691,12.319939\H,0,12.726988,5.185547,12.118437\H,0,11.42707,4.4191
 15,11.207102\H,0,12.763188,5.220247,10.352448\\Version=ES64L-G16RevA.0
 3\State=1-A\HF=-209.2263935\RMSD=3.100e-09\Dipole=-1.4178291,-0.212352
 2,0.908084\Quadrupole=-2.2194577,2.6509485,-0.4314908,0.0146166,0.7484
 227,-1.7995921\PG=C01 [X(C2H5N1O1)]\\@


 MY GROUP MEETINGS AREN'T VERY STRUCTURED.
     -- PROF. M. S. GORDON, OCT. 5, 1984
 Job cpu time:       0 days 15 hours 26 minutes 56.5 seconds.
 Elapsed time:       0 days  0 hours 25 minutes 36.0 seconds.
 File lengths (MBytes):  RWF=    342 Int=      0 D2E=      0 Chk=     21 Scr=      1
 Normal termination of Gaussian 16 at Sat Apr 17 05:29:35 2021.
