 Entering Gaussian System, Link 0=/s/ls4/users/knvvv/bin/g16sse/g16
 Input=data/database/M062X--def2-QZVP--Z_011_de2-QZVP_B.gjf
 Output=data/database/M062X--def2-QZVP--Z_011_de2-QZVP_B.log
 Initial command:
 /s/ls4/users/knvvv/bin/g16sse/l1.exe "/s/ls4/users/knvvv/bin/scratch/Gau-28015.inp" -scrdir="/s/ls4/users/knvvv/bin/scratch/"
 Entering Link 1 = /s/ls4/users/knvvv/bin/g16sse/l1.exe PID=     28016.
  
 Copyright (c) 1988,1990,1992,1993,1995,1998,2003,2009,2016,
            Gaussian, Inc.  All Rights Reserved.
  
 This is part of the Gaussian(R) 16 program.  It is based on
 the Gaussian(R) 09 system (copyright 2009, Gaussian, Inc.),
 the Gaussian(R) 03 system (copyright 2003, Gaussian, Inc.),
 the Gaussian(R) 98 system (copyright 1998, Gaussian, Inc.),
 the Gaussian(R) 94 system (copyright 1995, Gaussian, Inc.),
 the Gaussian 92(TM) system (copyright 1992, Gaussian, Inc.),
 the Gaussian 90(TM) system (copyright 1990, Gaussian, Inc.),
 the Gaussian 88(TM) system (copyright 1988, Gaussian, Inc.),
 the Gaussian 86(TM) system (copyright 1986, Carnegie Mellon
 University), and the Gaussian 82(TM) system (copyright 1983,
 Carnegie Mellon University). Gaussian is a federally registered
 trademark of Gaussian, Inc.
  
 This software contains proprietary and confidential information,
 including trade secrets, belonging to Gaussian, Inc.
  
 This software is provided under written license and may be
 used, copied, transmitted, or stored only in accord with that
 written license.
  
 The following legend is applicable only to US Government
 contracts under FAR:
  
                    RESTRICTED RIGHTS LEGEND
  
 Use, reproduction and disclosure by the US Government is
 subject to restrictions as set forth in subparagraphs (a)
 and (c) of the Commercial Computer Software - Restricted
 Rights clause in FAR 52.227-19.
  
 Gaussian, Inc.
 340 Quinnipiac St., Bldg. 40, Wallingford CT 06492
  
  
 ---------------------------------------------------------------
 Warning -- This program may not be used in any manner that
 competes with the business of Gaussian, Inc. or will provide
 assistance to any competitor of Gaussian, Inc.  The licensee
 of this program is prohibited from giving any competitor of
 Gaussian, Inc. access to this program.  By using this program,
 the user acknowledges that Gaussian, Inc. is engaged in the
 business of creating and licensing software in the field of
 computational chemistry and represents and warrants to the
 licensee that it is not a competitor of Gaussian, Inc. and that
 it will not use this program in any manner prohibited above.
 ---------------------------------------------------------------
  

 Cite this work as:
 Gaussian 16, Revision A.03,
 M. J. Frisch, G. W. Trucks, H. B. Schlegel, G. E. Scuseria, 
 M. A. Robb, J. R. Cheeseman, G. Scalmani, V. Barone, 
 G. A. Petersson, H. Nakatsuji, X. Li, M. Caricato, A. V. Marenich, 
 J. Bloino, B. G. Janesko, R. Gomperts, B. Mennucci, H. P. Hratchian, 
 J. V. Ortiz, A. F. Izmaylov, J. L. Sonnenberg, D. Williams-Young, 
 F. Ding, F. Lipparini, F. Egidi, J. Goings, B. Peng, A. Petrone, 
 T. Henderson, D. Ranasinghe, V. G. Zakrzewski, J. Gao, N. Rega, 
 G. Zheng, W. Liang, M. Hada, M. Ehara, K. Toyota, R. Fukuda, 
 J. Hasegawa, M. Ishida, T. Nakajima, Y. Honda, O. Kitao, H. Nakai, 
 T. Vreven, K. Throssell, J. A. Montgomery, Jr., J. E. Peralta, 
 F. Ogliaro, M. J. Bearpark, J. J. Heyd, E. N. Brothers, K. N. Kudin, 
 V. N. Staroverov, T. A. Keith, R. Kobayashi, J. Normand, 
 K. Raghavachari, A. P. Rendell, J. C. Burant, S. S. Iyengar, 
 J. Tomasi, M. Cossi, J. M. Millam, M. Klene, C. Adamo, R. Cammi, 
 J. W. Ochterski, R. L. Martin, K. Morokuma, O. Farkas, 
 J. B. Foresman, and D. J. Fox, Gaussian, Inc., Wallingford CT, 2016.
 
 ******************************************
 Gaussian 16:  ES64L-G16RevA.03 25-Dec-2016
                18-Apr-2021 
 ******************************************
 %RWF=temp12_14011,70GB
 %nprocshared=48
 Will use up to   48 processors via shared memory.
 Default route: MaxDisk=80GB
 ----------------------------------------------------------------------
 #P M062X/Def2QZVP Integral=UltraFineGrid SCF=NoSymm Stable=(RExt, Opt)
  IOp(1/33=1)
 ----------------------------------------------------------------------
 1/33=1,38=1,172=1/1;
 2/12=2,17=6,18=5,40=1/2;
 3/5=45,7=101,11=2,25=1,30=1,74=-55,75=-5/1,2,3;
 4/9=2/1;
 5/5=2,38=5/2;
 6/7=2,8=2,9=2,10=2,28=1/1;
 8/6=1,10=90,11=11/1;
 9/8=-3,42=1,46=1/14;
 5/5=2,8=3,17=40,38=5/8(-2);
 6/7=2,8=2,9=2,10=2,28=1/1;
 99/5=1,9=1/99;
 Leave Link    1 at Sun Apr 18 07:14:11 2021, MaxMem=           0 cpu:               8.4 elap:               0.2
 (Enter /s/ls4/users/knvvv/bin/g16sse/l101.exe)
 ONIOM data not found on unit 2.
 ----------------------
 Database calculations.
 ----------------------
 TstMul:  ICh=     0
 TstMul:  Mul=     2
 TstMul:  ICh=     0
 TstMul:  Mul=     2
 Symbolic Z-matrix:
 Charge =  0 Multiplicity = 2
 B                     0.        0.        0. 
 
 RdStrC is calling ZToCFu for IStruc=1 NZ=     1.
 PrtBox:  NBox=     1 Levels=  0 BoxLen=    8.00 SMaxX=        0.00
          Shift=            0.000000            0.000000            0.000000
 Box      1 Number                   0 centers from      1 to      1:
 After GenITR:
 ITRead=  0
 MicOpt= -1
 ITRead=  0
 MicOpt= -1
 NAtoms=      1 NQM=        1 NQMF=       0 NMMI=      0 NMMIF=      0
                NMic=       0 NMicF=      0.
                    Isotopes and Nuclear Properties:
 (Nuclear quadrupole moments (NQMom) in fm**2, nuclear magnetic moments (NMagM)
  in nuclear magnetons)

  Atom         1
 IAtWgt=          11
 AtmWgt=  11.0093053
 NucSpn=           3
 AtZEff=  -0.0000000
 NQMom=    4.0590000
 NMagM=    2.6886370
 AtZNuc=   5.0000000
 No MM parameters found.
 Leave Link  101 at Sun Apr 18 07:14:11 2021, MaxMem=   104857600 cpu:               6.8 elap:               0.2
 (Enter /s/ls4/users/knvvv/bin/g16sse/l202.exe)
                          Input orientation:                          
 ---------------------------------------------------------------------
 Center     Atomic      Atomic             Coordinates (Angstroms)
 Number     Number       Type             X           Y           Z
 ---------------------------------------------------------------------
      1          5           0        0.000000    0.000000    0.000000
 ---------------------------------------------------------------------
 Stoichiometry    B(2)
 Framework group  OH[O(B)]
 Deg. of freedom     0
 Full point group                 OH      NOp  48
 Largest Abelian subgroup         D2H     NOp   8
 Largest concise Abelian subgroup C1      NOp   1
                         Standard orientation:                         
 ---------------------------------------------------------------------
 Center     Atomic      Atomic             Coordinates (Angstroms)
 Number     Number       Type             X           Y           Z
 ---------------------------------------------------------------------
      1          5           0        0.000000    0.000000    0.000000
 ---------------------------------------------------------------------
 Leave Link  202 at Sun Apr 18 07:14:12 2021, MaxMem=   104857600 cpu:              36.7 elap:               0.8
 (Enter /s/ls4/users/knvvv/bin/g16sse/l301.exe)
 Standard basis: def2QZVP (5D, 7F)
 Ernie: Thresh=  0.10000D-02 Tol=  0.10000D-05 Strict=F.
 There are    22 symmetry adapted cartesian basis functions of AG  symmetry.
 There are     6 symmetry adapted cartesian basis functions of B1G symmetry.
 There are     6 symmetry adapted cartesian basis functions of B2G symmetry.
 There are     6 symmetry adapted cartesian basis functions of B3G symmetry.
 There are     2 symmetry adapted cartesian basis functions of AU  symmetry.
 There are    10 symmetry adapted cartesian basis functions of B1U symmetry.
 There are    10 symmetry adapted cartesian basis functions of B2U symmetry.
 There are    10 symmetry adapted cartesian basis functions of B3U symmetry.
 There are    16 symmetry adapted basis functions of AG  symmetry.
 There are     5 symmetry adapted basis functions of B1G symmetry.
 There are     5 symmetry adapted basis functions of B2G symmetry.
 There are     5 symmetry adapted basis functions of B3G symmetry.
 There are     2 symmetry adapted basis functions of AU  symmetry.
 There are     8 symmetry adapted basis functions of B1U symmetry.
 There are     8 symmetry adapted basis functions of B2U symmetry.
 There are     8 symmetry adapted basis functions of B3U symmetry.
    57 basis functions,    92 primitive gaussians,    72 cartesian basis functions
     3 alpha electrons        2 beta electrons
       nuclear repulsion energy         0.0000000000 Hartrees.
 IExCor= 4336 DFT=T Ex+Corr=M062X ExCW=0 ScaHFX=  0.540000
 ScaDFX=  1.000000  1.000000  1.000000  1.000000 ScalE2=  1.000000  1.000000
 IRadAn=      5 IRanWt=     -1 IRanGd=            0 ICorTp=0 IEmpDi=  4
 NAtoms=    1 NActive=    1 NUniq=    1 SFac= 1.00D+00 NAtFMM=   60 NAOKFM=F Big=F
 Integral buffers will be    131072 words long.
 Raffenetti 2 integral format.
 Two-electron integral symmetry is turned on.
 Leave Link  301 at Sun Apr 18 07:14:12 2021, MaxMem=   104857600 cpu:               7.7 elap:               0.2
 (Enter /s/ls4/users/knvvv/bin/g16sse/l302.exe)
 NPDir=0 NMtPBC=     1 NCelOv=     1 NCel=       1 NClECP=     1 NCelD=      1
         NCelK=      1 NCelE2=     1 NClLst=     1 CellRange=     0.0.
 One-electron integrals computed using PRISM.
 One-electron integral symmetry used in STVInt
 PrsmSu:  requested number of processors reduced to:   4 ShMem   1 Linda.
 PrsmSu:  requested number of processors reduced to:  21 ShMem   1 Linda.
  48 Symmetry operations used in ECPInt.
 ECPInt:  NShTT=     153 NPrTT=     474 LenC2=     154 LenP2D=     474.
 LDataN:  DoStor=T MaxTD1= 8 Len=  415
 NBasis=    57 RedAO= T EigKep=  6.35D-03  NBF=    16     5     5     5     2     8     8     8
 NBsUse=    57 1.00D-06 EigRej= -1.00D+00 NBFU=    16     5     5     5     2     8     8     8
 Precomputing XC quadrature grid using
 IXCGrd= 4 IRadAn=           5 IRanWt=          -1 IRanGd=           0 AccXCQ= 0.00D+00.
 Generated NRdTot=       0 NPtTot=           0 NUsed=           0 NTot=          32
 NSgBfM=    72    72    72    72    72 MxSgAt=     1 MxSgA2=     1.
 Leave Link  302 at Sun Apr 18 07:14:28 2021, MaxMem=   104857600 cpu:             766.4 elap:              16.4
 (Enter /s/ls4/users/knvvv/bin/g16sse/l303.exe)
 DipDrv:  MaxL=1.
 Leave Link  303 at Sun Apr 18 07:14:29 2021, MaxMem=   104857600 cpu:              17.6 elap:               0.4
 (Enter /s/ls4/users/knvvv/bin/g16sse/l401.exe)
 SCF N**3 symmetry information disabled.
 ExpMin= 4.99D-02 ExpMax= 4.64D+04 ExpMxC= 4.48D+02 IAcc=3 IRadAn=         5 AccDes= 0.00D+00
 Harris functional with IExCor= 1009 and IRadAn=       5 diagonalized for initial guess.
 HarFok:  IExCor= 1009 AccDes= 0.00D+00 IRadAn=         5 IDoV= 1 UseB2=F ITyADJ=14
 ICtDFT=  3500011 ScaDFX=  1.000000  1.000000  1.000000  1.000000
 FoFCou: FMM=F IPFlag=           0 FMFlag=      100000 FMFlg1=           0
         NFxFlg=           0 DoJE=T BraDBF=F KetDBF=T FulRan=T
         wScrn=  0.000000 ICntrl=       500 IOpCl=  0 I1Cent=   200000004 NGrid=           0
         NMat0=    1 NMatS0=      1 NMatT0=    0 NMatD0=    1 NMtDS0=    0 NMtDT0=    0
 Petite list used in FoFCou.
 CoulSu:  requested number of processors reduced to:  21 ShMem   1 Linda.
 CoulSu:  requested number of processors reduced to:  21 ShMem   1 Linda.
 CoulSu:  requested number of processors reduced to:  21 ShMem   1 Linda.
 CoulSu:  requested number of processors reduced to:  21 ShMem   1 Linda.
 DSYEVD-2 returned Info=         147 IAlg= 4 N=    57 NDim=    57 NE2=     1839388 trying  DSYEV.
 Harris En= -24.5881800712490    
 JPrj=0 DoOrth=F DoCkMO=F.
 Initial guess orbital symmetries:
 Alpha Orbitals:
       Occupied  (A1G) (A1G) (T1U)
       Virtual   (T1U) (T1U) (T1U) (T1U) (T1U) (A1G) (T2G) (T2G)
                 (T2G) (EG) (EG) (T1U) (T1U) (T1U) (A1G) (T2U)
                 (T2U) (T2U) (A2U) (T1U) (T1U) (T1U) (T2G) (T2G)
                 (T2G) (EG) (EG) (T1U) (T1U) (T1U) (T1G) (T1G)
                 (T1G) (T2G) (T2G) (T2G) (EG) (EG) (A1G) (T2G)
                 (T2G) (T2G) (EG) (EG) (T2U) (T2U) (T2U) (A2U)
                 (T1U) (T1U) (T1U) (A1G) (A1G) (A1G)
 Beta  Orbitals:
       Occupied  (A1G) (A1G)
       Virtual   (T1U) (T1U) (T1U) (T1U) (T1U) (T1U) (A1G) (T2G)
                 (T2G) (T2G) (EG) (EG) (T1U) (T1U) (T1U) (A1G)
                 (T2U) (T2U) (T2U) (A2U) (T1U) (T1U) (T1U) (T2G)
                 (T2G) (T2G) (EG) (EG) (T1U) (T1U) (T1U) (T1G)
                 (T1G) (T1G) (T2G) (T2G) (T2G) (EG) (EG) (A1G)
                 (T2G) (T2G) (T2G) (EG) (EG) (T2U) (T2U) (T2U)
                 (A2U) (T1U) (T1U) (T1U) (A1G) (A1G) (A1G)
 Initial guess <Sx>= 0.0000 <Sy>= 0.0000 <Sz>= 0.5000 <S**2>= 0.7500 S= 0.5000
 Leave Link  401 at Sun Apr 18 07:14:34 2021, MaxMem=   104857600 cpu:             216.2 elap:               4.9
 (Enter /s/ls4/users/knvvv/bin/g16sse/l502.exe)
 Keep R1 and R2 ints in memory in symmetry-blocked form, NReq=55529561.
 FoFCou: FMM=F IPFlag=           0 FMFlag=           0 FMFlg1=           0
         NFxFlg=           0 DoJE=F BraDBF=F KetDBF=F FulRan=T
         wScrn=  0.000000 ICntrl=       600 IOpCl=  0 I1Cent=           0 NGrid=           0
         NMat0=    1 NMatS0=   1653 NMatT0=    0 NMatD0=    1 NMtDS0=    0 NMtDT0=    0
 Petite list used in FoFCou.
 CoulSu:  requested number of processors reduced to:  22 ShMem   1 Linda.
 UHF open shell SCF:
 Using DIIS extrapolation, IDIIS=  1040.
 NGot=   104857600 LenX=   104476926 LenY=   104471301
 Requested convergence on RMS density matrix=1.00D-08 within 128 cycles.
 Requested convergence on MAX density matrix=1.00D-06.
 Requested convergence on             energy=1.00D-06.
 No special actions if energy rises.

 Cycle   1  Pass 1  IDiag  1:
 Density matrix breaks symmetry, PCut= 1.00D-04
 Density matrix has no symmetry -- integrals replicated.
 E= -24.6479822825260    
 DIIS: error= 2.27D-02 at cycle   1 NSaved=   1.
 NSaved= 1 IEnMin= 1 EnMin= -24.6479822825260     IErMin= 1 ErrMin= 2.27D-02
 ErrMax= 2.27D-02  0.00D+00 EMaxC= 1.00D-01 BMatC= 3.47D-02 BMatP= 3.47D-02
 IDIUse=3 WtCom= 7.73D-01 WtEn= 2.27D-01
 Coeff-Com:  0.100D+01
 Coeff-En:   0.100D+01
 Coeff:      0.100D+01
 Gap=     0.168 Goal=   None    Shift=    0.000
 Gap=     0.388 Goal=   None    Shift=    0.000
 GapD=    0.168 DampG=1.000 DampE=0.500 DampFc=0.5000 IDamp=-1.
 Damping current iteration by 5.00D-01
 RMSDP=1.46D-03 MaxDP=3.23D-02              OVMax= 6.65D-02

 Cycle   2  Pass 1  IDiag  1:
 Density matrix breaks symmetry, PCut= 1.00D-04
 Density matrix has no symmetry -- integrals replicated.
 E= -24.6501567746014     Delta-E=       -0.002174492075 Rises=F Damp=T
 DIIS: error= 1.15D-02 at cycle   2 NSaved=   2.
 NSaved= 2 IEnMin= 2 EnMin= -24.6501567746014     IErMin= 2 ErrMin= 1.15D-02
 ErrMax= 1.15D-02  0.00D+00 EMaxC= 1.00D-01 BMatC= 8.42D-03 BMatP= 3.47D-02
 IDIUse=3 WtCom= 8.85D-01 WtEn= 1.15D-01
 Coeff-Com: -0.919D+00 0.192D+01
 Coeff-En:   0.000D+00 0.100D+01
 Coeff:     -0.813D+00 0.181D+01
 Gap=     0.175 Goal=   None    Shift=    0.000
 Gap=     0.358 Goal=   None    Shift=    0.000
 RMSDP=7.49D-04 MaxDP=1.57D-02 DE=-2.17D-03 OVMax= 1.28D-02

 Cycle   3  Pass 1  IDiag  1:
 Density matrix breaks symmetry, PCut= 1.00D-04
 Density matrix has no symmetry -- integrals replicated.
 E= -24.6524404159279     Delta-E=       -0.002283641327 Rises=F Damp=F
 DIIS: error= 5.63D-04 at cycle   3 NSaved=   3.
 NSaved= 3 IEnMin= 3 EnMin= -24.6524404159279     IErMin= 3 ErrMin= 5.63D-04
 ErrMax= 5.63D-04  0.00D+00 EMaxC= 1.00D-01 BMatC= 2.93D-05 BMatP= 8.42D-03
 IDIUse=3 WtCom= 9.94D-01 WtEn= 5.63D-03
 Coeff-Com: -0.317D-02-0.211D-01 0.102D+01
 Coeff-En:   0.000D+00 0.000D+00 0.100D+01
 Coeff:     -0.315D-02-0.210D-01 0.102D+01
 Gap=     0.175 Goal=   None    Shift=    0.000
 Gap=     0.357 Goal=   None    Shift=    0.000
 RMSDP=8.72D-05 MaxDP=1.62D-03 DE=-2.28D-03 OVMax= 5.41D-03

 Cycle   4  Pass 1  IDiag  1:
 Density matrix breaks symmetry, PCut= 1.00D-04
 Density matrix has no symmetry -- integrals replicated.
 E= -24.6524614403125     Delta-E=       -0.000021024385 Rises=F Damp=F
 DIIS: error= 2.95D-04 at cycle   4 NSaved=   4.
 NSaved= 4 IEnMin= 4 EnMin= -24.6524614403125     IErMin= 4 ErrMin= 2.95D-04
 ErrMax= 2.95D-04  0.00D+00 EMaxC= 1.00D-01 BMatC= 2.57D-06 BMatP= 2.93D-05
 IDIUse=3 WtCom= 9.97D-01 WtEn= 2.95D-03
 Coeff-Com:  0.442D-01-0.845D-01-0.270D+00 0.131D+01
 Coeff-En:   0.000D+00 0.000D+00 0.000D+00 0.100D+01
 Coeff:      0.441D-01-0.842D-01-0.269D+00 0.131D+01
 Gap=     0.175 Goal=   None    Shift=    0.000
 Gap=     0.356 Goal=   None    Shift=    0.000
 RMSDP=3.92D-05 MaxDP=9.88D-04 DE=-2.10D-05 OVMax= 1.96D-03

 Cycle   5  Pass 1  IDiag  1:
 Density matrix breaks symmetry, PCut= 1.00D-04
 Density matrix has no symmetry -- integrals replicated.
 E= -24.6524636843583     Delta-E=       -0.000002244046 Rises=F Damp=F
 DIIS: error= 1.79D-05 at cycle   5 NSaved=   5.
 NSaved= 5 IEnMin= 5 EnMin= -24.6524636843583     IErMin= 5 ErrMin= 1.79D-05
 ErrMax= 1.79D-05  0.00D+00 EMaxC= 1.00D-01 BMatC= 3.44D-08 BMatP= 2.57D-06
 IDIUse=1 WtCom= 1.00D+00 WtEn= 0.00D+00
 Coeff-Com: -0.897D-02 0.172D-01 0.550D-01-0.294D+00 0.123D+01
 Coeff:     -0.897D-02 0.172D-01 0.550D-01-0.294D+00 0.123D+01
 Gap=     0.175 Goal=   None    Shift=    0.000
 Gap=     0.356 Goal=   None    Shift=    0.000
 RMSDP=3.54D-06 MaxDP=7.85D-05 DE=-2.24D-06 OVMax= 1.83D-04

 Cycle   6  Pass 1  IDiag  1:
 Density matrix breaks symmetry, PCut= 1.00D-04
 Density matrix has no symmetry -- integrals replicated.
 E= -24.6524637068320     Delta-E=       -0.000000022474 Rises=F Damp=F
 DIIS: error= 3.03D-06 at cycle   6 NSaved=   6.
 NSaved= 6 IEnMin= 6 EnMin= -24.6524637068320     IErMin= 6 ErrMin= 3.03D-06
 ErrMax= 3.03D-06  0.00D+00 EMaxC= 1.00D-01 BMatC= 6.17D-10 BMatP= 3.44D-08
 IDIUse=1 WtCom= 1.00D+00 WtEn= 0.00D+00
 Coeff-Com:  0.208D-03-0.425D-03-0.206D-03-0.231D-03-0.872D-01 0.109D+01
 Coeff:      0.208D-03-0.425D-03-0.206D-03-0.231D-03-0.872D-01 0.109D+01
 Gap=     0.175 Goal=   None    Shift=    0.000
 Gap=     0.356 Goal=   None    Shift=    0.000
 RMSDP=5.42D-07 MaxDP=1.03D-05 DE=-2.25D-08 OVMax= 3.17D-05

 Cycle   7  Pass 1  IDiag  1:
 Density matrix breaks symmetry, PCut= 1.00D-04
 Density matrix has no symmetry -- integrals replicated.
 E= -24.6524637074065     Delta-E=       -0.000000000574 Rises=F Damp=F
 DIIS: error= 6.47D-07 at cycle   7 NSaved=   7.
 NSaved= 7 IEnMin= 7 EnMin= -24.6524637074065     IErMin= 7 ErrMin= 6.47D-07
 ErrMax= 6.47D-07  0.00D+00 EMaxC= 1.00D-01 BMatC= 2.12D-11 BMatP= 6.17D-10
 IDIUse=1 WtCom= 1.00D+00 WtEn= 0.00D+00
 Coeff-Com:  0.845D-04-0.168D-03-0.404D-03 0.260D-02-0.175D-01-0.951D-01
 Coeff-Com:  0.111D+01
 Coeff:      0.845D-04-0.168D-03-0.404D-03 0.260D-02-0.175D-01-0.951D-01
 Coeff:      0.111D+01
 Gap=     0.175 Goal=   None    Shift=    0.000
 Gap=     0.356 Goal=   None    Shift=    0.000
 RMSDP=1.07D-07 MaxDP=2.57D-06 DE=-5.74D-10 OVMax= 8.27D-06

 Cycle   8  Pass 1  IDiag  1:
 Density matrix breaks symmetry, PCut= 1.00D-04
 Density matrix has no symmetry -- integrals replicated.
 E= -24.6524637074339     Delta-E=       -0.000000000027 Rises=F Damp=F
 DIIS: error= 4.90D-07 at cycle   8 NSaved=   8.
 NSaved= 8 IEnMin= 8 EnMin= -24.6524637074339     IErMin= 8 ErrMin= 4.90D-07
 ErrMax= 4.90D-07  0.00D+00 EMaxC= 1.00D-01 BMatC= 2.98D-12 BMatP= 2.12D-11
 IDIUse=1 WtCom= 1.00D+00 WtEn= 0.00D+00
 Coeff-Com: -0.173D-04 0.336D-04 0.944D-04-0.381D-03 0.359D-02-0.209D-02
 Coeff-Com: -0.143D+00 0.114D+01
 Coeff:     -0.173D-04 0.336D-04 0.944D-04-0.381D-03 0.359D-02-0.209D-02
 Coeff:     -0.143D+00 0.114D+01
 Gap=     0.175 Goal=   None    Shift=    0.000
 Gap=     0.356 Goal=   None    Shift=    0.000
 RMSDP=4.67D-08 MaxDP=9.36D-07 DE=-2.74D-11 OVMax= 6.55D-06

 Cycle   9  Pass 1  IDiag  1:
 Density matrix breaks symmetry, PCut= 1.00D-04
 Density matrix has no symmetry -- integrals replicated.
 E= -24.6524637074478     Delta-E=       -0.000000000014 Rises=F Damp=F
 DIIS: error= 4.90D-07 at cycle   9 NSaved=   9.
 NSaved= 9 IEnMin= 9 EnMin= -24.6524637074478     IErMin= 8 ErrMin= 4.90D-07
 ErrMax= 4.90D-07  0.00D+00 EMaxC= 1.00D-01 BMatC= 2.75D-12 BMatP= 2.98D-12
 IDIUse=1 WtCom= 1.00D+00 WtEn= 0.00D+00
 Coeff-Com: -0.484D-06 0.105D-05 0.613D-06-0.435D-04 0.186D-03 0.636D-03
 Coeff-Com: -0.330D-02-0.137D+00 0.114D+01
 Coeff:     -0.484D-06 0.105D-05 0.613D-06-0.435D-04 0.186D-03 0.636D-03
 Coeff:     -0.330D-02-0.137D+00 0.114D+01
 Gap=     0.175 Goal=   None    Shift=    0.000
 Gap=     0.356 Goal=   None    Shift=    0.000
 RMSDP=4.60D-08 MaxDP=9.05D-07 DE=-1.39D-11 OVMax= 6.59D-06

 Cycle  10  Pass 1  IDiag  1:
 Density matrix breaks symmetry, PCut= 1.00D-04
 Density matrix has no symmetry -- integrals replicated.
 E= -24.6524637074616     Delta-E=       -0.000000000014 Rises=F Damp=F
 DIIS: error= 4.90D-07 at cycle  10 NSaved=  10.
 NSaved=10 IEnMin=10 EnMin= -24.6524637074616     IErMin= 8 ErrMin= 4.90D-07
 ErrMax= 4.90D-07  0.00D+00 EMaxC= 1.00D-01 BMatC= 2.74D-12 BMatP= 2.75D-12
 IDIUse=1 WtCom= 1.00D+00 WtEn= 0.00D+00
 Coeff-Com: -0.590D-07 0.814D-07 0.157D-05-0.294D-05-0.175D-04-0.699D-04
 Coeff-Com:  0.124D-02 0.432D-02-0.162D+00 0.116D+01
 Coeff:     -0.590D-07 0.814D-07 0.157D-05-0.294D-05-0.175D-04-0.699D-04
 Coeff:      0.124D-02 0.432D-02-0.162D+00 0.116D+01
 Gap=     0.175 Goal=   None    Shift=    0.000
 Gap=     0.356 Goal=   None    Shift=    0.000
 RMSDP=4.64D-08 MaxDP=9.13D-07 DE=-1.38D-11 OVMax= 6.65D-06

 Cycle  11  Pass 1  IDiag  1:
 Density matrix breaks symmetry, PCut= 1.00D-04
 Density matrix has no symmetry -- integrals replicated.
 E= -24.6524637074755     Delta-E=       -0.000000000014 Rises=F Damp=F
 DIIS: error= 4.90D-07 at cycle  11 NSaved=  11.
 NSaved=11 IEnMin=11 EnMin= -24.6524637074755     IErMin= 8 ErrMin= 4.90D-07
 ErrMax= 4.90D-07  0.00D+00 EMaxC= 1.00D-01 BMatC= 2.74D-12 BMatP= 2.74D-12
 IDIUse=1 WtCom= 1.00D+00 WtEn= 0.00D+00
 Coeff-Com:  0.462D-06-0.817D-06-0.635D-05 0.273D-04-0.309D-04 0.606D-04
 Coeff-Com: -0.224D-02 0.167D-01 0.196D+00-0.364D+01 0.443D+01
 Coeff:      0.462D-06-0.817D-06-0.635D-05 0.273D-04-0.309D-04 0.606D-04
 Coeff:     -0.224D-02 0.167D-01 0.196D+00-0.364D+01 0.443D+01
 Gap=     0.175 Goal=   None    Shift=    0.000
 Gap=     0.356 Goal=   None    Shift=    0.000
 RMSDP=1.88D-07 MaxDP=3.70D-06 DE=-1.39D-11 OVMax= 2.70D-05

 Cycle  12  Pass 1  IDiag  1:
 Density matrix breaks symmetry, PCut= 1.00D-04
 Density matrix has no symmetry -- integrals replicated.
 E= -24.6524637075320     Delta-E=       -0.000000000056 Rises=F Damp=F
 DIIS: error= 4.90D-07 at cycle  12 NSaved=  12.
 NSaved=12 IEnMin=12 EnMin= -24.6524637075320     IErMin=12 ErrMin= 4.90D-07
 ErrMax= 4.90D-07  0.00D+00 EMaxC= 1.00D-01 BMatC= 2.74D-12 BMatP= 2.74D-12
 IDIUse=1 WtCom= 1.00D+00 WtEn= 0.00D+00
 Large coefficients: NSaved= 12 BigCof=   85.35 CofMax=   10.00 Det=-8.81D-19
 Inversion failed.  Reducing to 11 matrices.
 Large coefficients: NSaved= 11 BigCof=   77.98 CofMax=   10.00 Det=-9.90D-19
 Inversion failed.  Reducing to 10 matrices.
 Large coefficients: NSaved= 10 BigCof=   61.44 CofMax=   10.00 Det=-1.36D-18
 Inversion failed.  Reducing to  9 matrices.
 Large coefficients: NSaved=  9 BigCof=   30.96 CofMax=   10.00 Det=-3.14D-18
 Inversion failed.  Reducing to  8 matrices.
 Large coefficients: NSaved=  8 BigCof=   21.21 CofMax=   10.00 Det=-4.86D-18
 Inversion failed.  Reducing to  7 matrices.
 Large coefficients: NSaved=  7 BigCof=   20.79 CofMax=   10.00 Det=-4.86D-18
 Inversion failed.  Reducing to  6 matrices.
 Large coefficients: NSaved=  6 BigCof=   20.79 CofMax=   10.00 Det=-4.93D-18
 Inversion failed.  Reducing to  5 matrices.
 Large coefficients: NSaved=  5 BigCof=   18.12 CofMax=   10.00 Det=-5.48D-18
 Inversion failed.  Reducing to  4 matrices.
 Large coefficients: NSaved=  4 BigCof=   17.73 CofMax=   10.00 Det=-5.58D-18
 Inversion failed.  Reducing to  3 matrices.
 Large coefficients: NSaved=  3 BigCof=   17.71 CofMax=   10.00 Det=-6.16D-18
 Inversion failed.  Reducing to  2 matrices.
 Large coefficients: NSaved=  2 BigCof=   17.47 CofMax=   10.00 Det=-8.37D-18
 Coeff-Com: -0.165D+02 0.175D+02
 Coeff:     -0.165D+02 0.175D+02
 Gap=     0.175 Goal=   None    Shift=    0.000
 Gap=     0.356 Goal=   None    Shift=    0.000
 RMSDP=3.14D-06 MaxDP=6.17D-05 DE=-5.65D-11 OVMax= 4.50D-04

 Cycle  13  Pass 1  IDiag  1:
 Density matrix breaks symmetry, PCut= 1.00D-04
 Density matrix has no symmetry -- integrals replicated.
 E= -24.6524637084736     Delta-E=       -0.000000000942 Rises=F Damp=F
 DIIS: error= 4.90D-07 at cycle  13 NSaved=   3.
 NSaved= 3 IEnMin= 3 EnMin= -24.6524637084736     IErMin= 3 ErrMin= 4.90D-07
 ErrMax= 4.90D-07  0.00D+00 EMaxC= 1.00D-01 BMatC= 2.74D-12 BMatP= 2.74D-12
 IDIUse=1 WtCom= 1.00D+00 WtEn= 0.00D+00
 Large coefficients: NSaved=  3 BigCof=   11.01 CofMax=   10.00 Det=-7.38D-18
 Inversion failed.  Reducing to  2 matrices.
 Coeff-Com: -0.823D+00 0.182D+01
 Coeff:     -0.823D+00 0.182D+01
 Gap=     0.175 Goal=   None    Shift=    0.000
 Gap=     0.356 Goal=   None    Shift=    0.000
 RMSDP=2.62D-06 MaxDP=5.15D-05 DE=-9.42D-10 OVMax= 3.76D-04

 Cycle  14  Pass 1  IDiag  1:
 Density matrix breaks symmetry, PCut= 1.00D-04
 Density matrix has no symmetry -- integrals replicated.
 E= -24.6524637092593     Delta-E=       -0.000000000786 Rises=F Damp=F
 DIIS: error= 4.90D-07 at cycle  14 NSaved=   3.
 NSaved= 3 IEnMin= 3 EnMin= -24.6524637092593     IErMin= 3 ErrMin= 4.90D-07
 ErrMax= 4.90D-07  0.00D+00 EMaxC= 1.00D-01 BMatC= 2.73D-12 BMatP= 2.74D-12
 IDIUse=1 WtCom= 1.00D+00 WtEn= 0.00D+00
 Coeff-Com:  0.188D+01-0.534D+01 0.446D+01
 Coeff:      0.188D+01-0.534D+01 0.446D+01
 Gap=     0.175 Goal=   None    Shift=    0.000
 Gap=     0.356 Goal=   None    Shift=    0.000
 RMSDP=3.22D-06 MaxDP=6.33D-05 DE=-7.86D-10 OVMax= 4.62D-04

 Cycle  15  Pass 1  IDiag  1:
 Density matrix breaks symmetry, PCut= 1.00D-04
 Density matrix has no symmetry -- integrals replicated.
 E= -24.6524637102239     Delta-E=       -0.000000000965 Rises=F Damp=F
 DIIS: error= 4.89D-07 at cycle  15 NSaved=   4.
 NSaved= 4 IEnMin= 4 EnMin= -24.6524637102239     IErMin= 4 ErrMin= 4.89D-07
 ErrMax= 4.89D-07  0.00D+00 EMaxC= 1.00D-01 BMatC= 2.73D-12 BMatP= 2.73D-12
 IDIUse=1 WtCom= 1.00D+00 WtEn= 0.00D+00
 Large coefficients: NSaved=  4 BigCof=   59.09 CofMax=   10.00 Det=-4.81D-17
 Inversion failed.  Reducing to  3 matrices.
 Large coefficients: NSaved=  3 BigCof=   19.13 CofMax=   10.00 Det=-1.47D-16
 Inversion failed.  Reducing to  2 matrices.
 Coeff-Com:  0.211D+00 0.789D+00
 Coeff:      0.211D+00 0.789D+00
 Gap=     0.175 Goal=   None    Shift=    0.000
 Gap=     0.356 Goal=   None    Shift=    0.000
 RMSDP=6.42D-07 MaxDP=1.26D-05 DE=-9.65D-10 OVMax= 9.19D-05

 Cycle  16  Pass 1  IDiag  1:
 Density matrix breaks symmetry, PCut= 1.00D-04
 Density matrix has no symmetry -- integrals replicated.
 E= -24.6524637100319     Delta-E=        0.000000000192 Rises=F Damp=F
 DIIS: error= 4.89D-07 at cycle  16 NSaved=   3.
 NSaved= 3 IEnMin= 2 EnMin= -24.6524637102239     IErMin= 2 ErrMin= 4.89D-07
 ErrMax= 4.89D-07  0.00D+00 EMaxC= 1.00D-01 BMatC= 2.73D-12 BMatP= 2.73D-12
 IDIUse=1 WtCom= 1.00D+00 WtEn= 0.00D+00
 Coeff-Com: -0.141D+01-0.140D+01 0.381D+01
 Coeff:     -0.141D+01-0.140D+01 0.381D+01
 Gap=     0.175 Goal=   None    Shift=    0.000
 Gap=     0.356 Goal=   None    Shift=    0.000
 RMSDP=2.79D-06 MaxDP=5.47D-05 DE= 1.92D-10 OVMax= 3.99D-04

 Cycle  17  Pass 1  IDiag  1:
 Density matrix breaks symmetry, PCut= 1.00D-04
 Density matrix has no symmetry -- integrals replicated.
 E= -24.6524637108649     Delta-E=       -0.000000000833 Rises=F Damp=F
 DIIS: error= 4.89D-07 at cycle  17 NSaved=   4.
 NSaved= 4 IEnMin= 4 EnMin= -24.6524637108649     IErMin= 4 ErrMin= 4.89D-07
 ErrMax= 4.89D-07  0.00D+00 EMaxC= 1.00D-01 BMatC= 2.72D-12 BMatP= 2.73D-12
 IDIUse=1 WtCom= 1.00D+00 WtEn= 0.00D+00
 Large coefficients: NSaved=  4 BigCof=   53.24 CofMax=   10.00 Det=-1.31D-16
 Inversion failed.  Reducing to  3 matrices.
 Large coefficients: NSaved=  3 BigCof=   10.52 CofMax=   10.00 Det=-1.45D-16
 Inversion failed.  Reducing to  2 matrices.
 Coeff-Com:  0.256D+00 0.744D+00
 Coeff:      0.256D+00 0.744D+00
 Gap=     0.175 Goal=   None    Shift=    0.000
 Gap=     0.356 Goal=   None    Shift=    0.000
 RMSDP=6.73D-07 MaxDP=1.32D-05 DE=-8.33D-10 OVMax= 9.65D-05

 Cycle  18  Pass 1  IDiag  1:
 Density matrix breaks symmetry, PCut= 1.00D-04
 Density matrix has no symmetry -- integrals replicated.
 E= -24.6524637106637     Delta-E=        0.000000000201 Rises=F Damp=F
 DIIS: error= 4.89D-07 at cycle  18 NSaved=   3.
 NSaved= 3 IEnMin= 2 EnMin= -24.6524637108649     IErMin= 2 ErrMin= 4.89D-07
 ErrMax= 4.89D-07  0.00D+00 EMaxC= 1.00D-01 BMatC= 2.72D-12 BMatP= 2.72D-12
 IDIUse=1 WtCom= 1.00D+00 WtEn= 0.00D+00
 Large coefficients: NSaved=  3 BigCof=   23.66 CofMax=   10.00 Det=-9.49D-17
 Inversion failed.  Reducing to  2 matrices.
 Coeff-Com:  0.213D+00 0.787D+00
 Coeff:      0.213D+00 0.787D+00
 Gap=     0.175 Goal=   None    Shift=    0.000
 Gap=     0.356 Goal=   None    Shift=    0.000
 RMSDP=1.83D-07 MaxDP=3.60D-06 DE= 2.01D-10 OVMax= 2.62D-05

 Cycle  19  Pass 1  IDiag  1:
 Density matrix breaks symmetry, PCut= 1.00D-04
 Density matrix has no symmetry -- integrals replicated.
 E= -24.6524637107184     Delta-E=       -0.000000000055 Rises=F Damp=F
 DIIS: error= 4.89D-07 at cycle  19 NSaved=   3.
 NSaved= 3 IEnMin= 1 EnMin= -24.6524637108649     IErMin= 1 ErrMin= 4.89D-07
 ErrMax= 4.89D-07  0.00D+00 EMaxC= 1.00D-01 BMatC= 2.72D-12 BMatP= 2.72D-12
 IDIUse=1 WtCom= 1.00D+00 WtEn= 0.00D+00
 Coeff-Com: -0.496D+00-0.788D+01 0.938D+01
 Coeff:     -0.496D+00-0.788D+01 0.938D+01
 Gap=     0.175 Goal=   None    Shift=    0.000
 Gap=     0.356 Goal=   None    Shift=    0.000
 RMSDP=1.24D-06 MaxDP=2.43D-05 DE=-5.47D-11 OVMax= 1.78D-04

 Cycle  20  Pass 1  IDiag  1:
 Density matrix breaks symmetry, PCut= 1.00D-04
 Density matrix has no symmetry -- integrals replicated.
 E= -24.6524637110886     Delta-E=       -0.000000000370 Rises=F Damp=F
 DIIS: error= 4.88D-07 at cycle  20 NSaved=   4.
 NSaved= 4 IEnMin= 4 EnMin= -24.6524637110886     IErMin= 4 ErrMin= 4.88D-07
 ErrMax= 4.88D-07  0.00D+00 EMaxC= 1.00D-01 BMatC= 2.72D-12 BMatP= 2.72D-12
 IDIUse=1 WtCom= 1.00D+00 WtEn= 0.00D+00
 Large coefficients: NSaved=  4 BigCof=  193.41 CofMax=   10.00 Det=-4.63D-18
 Inversion failed.  Reducing to  3 matrices.
 Large coefficients: NSaved=  3 BigCof=   28.37 CofMax=   10.00 Det=-4.98D-17
 Inversion failed.  Reducing to  2 matrices.
 Large coefficients: NSaved=  2 BigCof=   24.59 CofMax=   10.00 Det=-5.35D-17
 Coeff-Com: -0.236D+02 0.246D+02
 Coeff:     -0.236D+02 0.246D+02
 Gap=     0.175 Goal=   None    Shift=    0.000
 Gap=     0.356 Goal=   None    Shift=    0.000
 RMSDP=2.93D-05 MaxDP=5.75D-04 DE=-3.70D-10 OVMax= 4.19D-03

 Cycle  21  Pass 1  IDiag  1:
 Density matrix breaks symmetry, PCut= 1.00D-04
 Density matrix has no symmetry -- integrals replicated.
 E= -24.6524637197612     Delta-E=       -0.000000008673 Rises=F Damp=F
 DIIS: error= 5.32D-07 at cycle  21 NSaved=   3.
 NSaved= 3 IEnMin= 3 EnMin= -24.6524637197612     IErMin= 2 ErrMin= 4.88D-07
 ErrMax= 5.32D-07  0.00D+00 EMaxC= 1.00D-01 BMatC= 1.35D-11 BMatP= 2.72D-12
 IDIUse=1 WtCom= 1.00D+00 WtEn= 0.00D+00
 Large coefficients: NSaved=  3 BigCof=   26.56 CofMax=   10.00 Det=-4.81D-17
 Inversion failed.  Reducing to  2 matrices.
 Coeff-Com:  0.996D+00 0.409D-02
 Coeff:      0.996D+00 0.409D-02
 Gap=     0.175 Goal=   None    Shift=    0.000
 Gap=     0.356 Goal=   None    Shift=    0.000
 RMSDP=2.91D-05 MaxDP=5.72D-04 DE=-8.67D-09 OVMax= 4.17D-03

 Cycle  22  Pass 1  IDiag  1:
 Density matrix breaks symmetry, PCut= 1.00D-04
 Density matrix has no symmetry -- integrals replicated.
 E= -24.6524637111361     Delta-E=        0.000000008625 Rises=F Damp=F
 DIIS: error= 4.88D-07 at cycle  22 NSaved=   3.
 NSaved= 3 IEnMin= 2 EnMin= -24.6524637197612     IErMin= 3 ErrMin= 4.88D-07
 ErrMax= 4.88D-07  0.00D+00 EMaxC= 1.00D-01 BMatC= 2.72D-12 BMatP= 2.72D-12
 IDIUse=1 WtCom= 1.00D+00 WtEn= 0.00D+00
 Large coefficients: NSaved=  3 BigCof=   10.09 CofMax=   10.00 Det=-4.61D-17
 Inversion failed.  Reducing to  2 matrices.
 Coeff-Com:  0.828D-02 0.992D+00
 Coeff:      0.828D-02 0.992D+00
 Gap=     0.175 Goal=   None    Shift=    0.000
 Gap=     0.356 Goal=   None    Shift=    0.000
 RMSDP=2.80D-07 MaxDP=5.51D-06 DE= 8.63D-09 OVMax= 4.02D-05

 Cycle  23  Pass 1  IDiag  1:
 Density matrix breaks symmetry, PCut= 1.00D-04
 Density matrix has no symmetry -- integrals replicated.
 E= -24.6524637112198     Delta-E=       -0.000000000084 Rises=F Damp=F
 DIIS: error= 4.88D-07 at cycle  23 NSaved=   3.
 NSaved= 3 IEnMin= 1 EnMin= -24.6524637197612     IErMin= 3 ErrMin= 4.88D-07
 ErrMax= 4.88D-07  0.00D+00 EMaxC= 1.00D-01 BMatC= 2.72D-12 BMatP= 2.72D-12
 IDIUse=1 WtCom= 1.00D+00 WtEn= 0.00D+00
 Large coefficients: NSaved=  3 BigCof=  407.74 CofMax=   10.00 Det=-1.29D-18
 Inversion failed.  Reducing to  2 matrices.
 Coeff-Com:  0.680D-01 0.932D+00
 Coeff:      0.680D-01 0.932D+00
 Gap=     0.175 Goal=   None    Shift=    0.000
 Gap=     0.356 Goal=   None    Shift=    0.000
 RMSDP=2.03D-08 MaxDP=4.00D-07 DE=-8.37D-11 OVMax= 2.91D-06

 Cycle  24  Pass 1  IDiag  1:
 Density matrix breaks symmetry, PCut= 1.00D-04
 Density matrix has no symmetry -- integrals replicated.
 E= -24.6524637112259     Delta-E=       -0.000000000006 Rises=F Damp=F
 DIIS: error= 4.88D-07 at cycle  24 NSaved=   3.
 NSaved= 3 IEnMin= 3 EnMin= -24.6524637112259     IErMin= 3 ErrMin= 4.88D-07
 ErrMax= 4.88D-07  0.00D+00 EMaxC= 1.00D-01 BMatC= 2.72D-12 BMatP= 2.72D-12
 IDIUse=1 WtCom= 1.00D+00 WtEn= 0.00D+00
 Large coefficients: NSaved=  3 BigCof=   65.47 CofMax=   10.00 Det=-4.74D-18
 Inversion failed.  Reducing to  2 matrices.
 Coeff-Com: -0.267D-02 0.100D+01
 Coeff:     -0.267D-02 0.100D+01
 Gap=     0.175 Goal=   None    Shift=    0.000
 Gap=     0.356 Goal=   None    Shift=    0.000
 RMSDP=3.94D-08 MaxDP=7.75D-07 DE=-6.07D-12 OVMax= 5.65D-06

 Cycle  25  Pass 1  IDiag  1:
 Density matrix breaks symmetry, PCut= 1.00D-04
 Density matrix has no symmetry -- integrals replicated.
 E= -24.6524637112376     Delta-E=       -0.000000000012 Rises=F Damp=F
 DIIS: error= 4.88D-07 at cycle  25 NSaved=   3.
 NSaved= 3 IEnMin= 3 EnMin= -24.6524637112376     IErMin= 3 ErrMin= 4.88D-07
 ErrMax= 4.88D-07  0.00D+00 EMaxC= 1.00D-01 BMatC= 2.72D-12 BMatP= 2.72D-12
 IDIUse=1 WtCom= 1.00D+00 WtEn= 0.00D+00
 Coeff-Com: -0.705D-01-0.330D+01 0.437D+01
 Coeff:     -0.705D-01-0.330D+01 0.437D+01
 Gap=     0.175 Goal=   None    Shift=    0.000
 Gap=     0.356 Goal=   None    Shift=    0.000
 RMSDP=1.74D-07 MaxDP=3.41D-06 DE=-1.18D-11 OVMax= 2.49D-05

 Cycle  26  Pass 1  IDiag  1:
 Density matrix breaks symmetry, PCut= 1.00D-04
 Density matrix has no symmetry -- integrals replicated.
 E= -24.6524637112895     Delta-E=       -0.000000000052 Rises=F Damp=F
 DIIS: error= 4.88D-07 at cycle  26 NSaved=   4.
 NSaved= 4 IEnMin= 4 EnMin= -24.6524637112895     IErMin= 4 ErrMin= 4.88D-07
 ErrMax= 4.88D-07  0.00D+00 EMaxC= 1.00D-01 BMatC= 2.72D-12 BMatP= 2.72D-12
 IDIUse=1 WtCom= 1.00D+00 WtEn= 0.00D+00
 Large coefficients: NSaved=  4 BigCof=   47.33 CofMax=   10.00 Det=-5.34D-18
 Inversion failed.  Reducing to  3 matrices.
 Large coefficients: NSaved=  3 BigCof=   22.24 CofMax=   10.00 Det=-8.47D-18
 Inversion failed.  Reducing to  2 matrices.
 Large coefficients: NSaved=  2 BigCof=   17.26 CofMax=   10.00 Det=-1.13D-17
 Coeff-Com: -0.163D+02 0.173D+02
 Coeff:     -0.163D+02 0.173D+02
 Gap=     0.175 Goal=   None    Shift=    0.000
 Gap=     0.356 Goal=   None    Shift=    0.000
 RMSDP=2.86D-06 MaxDP=5.63D-05 DE=-5.19D-11 OVMax= 4.10D-04

 Cycle  27  Pass 1  IDiag  1:
 Density matrix breaks symmetry, PCut= 1.00D-04
 Density matrix has no symmetry -- integrals replicated.
 E= -24.6524637121441     Delta-E=       -0.000000000855 Rises=F Damp=F
 DIIS: error= 4.88D-07 at cycle  27 NSaved=   3.
 NSaved= 3 IEnMin= 3 EnMin= -24.6524637121441     IErMin= 3 ErrMin= 4.88D-07
 ErrMax= 4.88D-07  0.00D+00 EMaxC= 1.00D-01 BMatC= 2.71D-12 BMatP= 2.72D-12
 IDIUse=1 WtCom= 1.00D+00 WtEn= 0.00D+00
 Coeff-Com: -0.561D+01 0.382D+01 0.278D+01
 Coeff:     -0.561D+01 0.382D+01 0.278D+01
 Gap=     0.175 Goal=   None    Shift=    0.000
 Gap=     0.356 Goal=   None    Shift=    0.000
 RMSDP=6.12D-06 MaxDP=1.20D-04 DE=-8.55D-10 OVMax= 8.77D-04

 Cycle  28  Pass 1  IDiag  1:
 Density matrix breaks symmetry, PCut= 1.00D-04
 Density matrix has no symmetry -- integrals replicated.
 E= -24.6524637139670     Delta-E=       -0.000000001823 Rises=F Damp=F
 DIIS: error= 4.86D-07 at cycle  28 NSaved=   4.
 NSaved= 4 IEnMin= 4 EnMin= -24.6524637139670     IErMin= 4 ErrMin= 4.86D-07
 ErrMax= 4.86D-07  0.00D+00 EMaxC= 1.00D-01 BMatC= 2.74D-12 BMatP= 2.71D-12
 IDIUse=1 WtCom= 1.00D+00 WtEn= 0.00D+00
 Large coefficients: NSaved=  4 BigCof=   83.27 CofMax=   10.00 Det=-4.41D-18
 Inversion failed.  Reducing to  3 matrices.
 Large coefficients: NSaved=  3 BigCof=   10.09 CofMax=   10.00 Det=-1.75D-16
 Inversion failed.  Reducing to  2 matrices.
 Coeff-Com:  0.944D+00 0.562D-01
 Coeff:      0.944D+00 0.562D-01
 Gap=     0.175 Goal=   None    Shift=    0.000
 Gap=     0.356 Goal=   None    Shift=    0.000
 RMSDP=5.74D-06 MaxDP=1.13D-04 DE=-1.82D-09 OVMax= 8.22D-04

 Cycle  29  Pass 1  IDiag  1:
 Density matrix breaks symmetry, PCut= 1.00D-04
 Density matrix has no symmetry -- integrals replicated.
 E= -24.6524637122584     Delta-E=        0.000000001709 Rises=F Damp=F
 DIIS: error= 4.88D-07 at cycle  29 NSaved=   3.
 NSaved= 3 IEnMin= 2 EnMin= -24.6524637139670     IErMin= 2 ErrMin= 4.86D-07
 ErrMax= 4.88D-07  0.00D+00 EMaxC= 1.00D-01 BMatC= 2.71D-12 BMatP= 2.71D-12
 IDIUse=1 WtCom= 1.00D+00 WtEn= 0.00D+00
 Large coefficients: NSaved=  3 BigCof=   25.51 CofMax=   10.00 Det=-6.50D-17
 Inversion failed.  Reducing to  2 matrices.
 Coeff-Com:  0.160D+00 0.840D+00
 Coeff:      0.160D+00 0.840D+00
 Gap=     0.175 Goal=   None    Shift=    0.000
 Gap=     0.356 Goal=   None    Shift=    0.000
 RMSDP=9.56D-07 MaxDP=1.88D-05 DE= 1.71D-09 OVMax= 1.37D-04

 Cycle  30  Pass 1  IDiag  1:
 Density matrix breaks symmetry, PCut= 1.00D-04
 Density matrix has no symmetry -- integrals replicated.
 E= -24.6524637125434     Delta-E=       -0.000000000285 Rises=F Damp=F
 DIIS: error= 4.87D-07 at cycle  30 NSaved=   3.
 NSaved= 3 IEnMin= 1 EnMin= -24.6524637139670     IErMin= 1 ErrMin= 4.86D-07
 ErrMax= 4.87D-07  0.00D+00 EMaxC= 1.00D-01 BMatC= 2.71D-12 BMatP= 2.71D-12
 IDIUse=1 WtCom= 1.00D+00 WtEn= 0.00D+00
 Large coefficients: NSaved=  3 BigCof=  860.33 CofMax=   10.00 Det=-1.67D-18
 Inversion failed.  Reducing to  2 matrices.
 Large coefficients: NSaved=  2 BigCof=   11.65 CofMax=   10.00 Det=-9.85D-17
 Coeff-Com: -0.106D+02 0.116D+02
 Coeff:     -0.106D+02 0.116D+02
 Gap=     0.175 Goal=   None    Shift=    0.000
 Gap=     0.356 Goal=   None    Shift=    0.000
 RMSDP=1.02D-05 MaxDP=2.01D-04 DE=-2.85D-10 OVMax= 1.46D-03

 Cycle  31  Pass 1  IDiag  1:
 Density matrix breaks symmetry, PCut= 1.00D-04
 Density matrix has no symmetry -- integrals replicated.
 E= -24.6524637155812     Delta-E=       -0.000000003038 Rises=F Damp=F
 DIIS: error= 4.85D-07 at cycle  31 NSaved=   3.
 NSaved= 3 IEnMin= 3 EnMin= -24.6524637155812     IErMin= 3 ErrMin= 4.85D-07
 ErrMax= 4.85D-07  0.00D+00 EMaxC= 1.00D-01 BMatC= 2.85D-12 BMatP= 2.71D-12
 IDIUse=1 WtCom= 1.00D+00 WtEn= 0.00D+00
 Large coefficients: NSaved=  3 BigCof=  382.58 CofMax=   10.00 Det=-3.94D-18
 Inversion failed.  Reducing to  2 matrices.
 Coeff-Com:  0.890D+00 0.110D+00
 Coeff:      0.890D+00 0.110D+00
 Gap=     0.175 Goal=   None    Shift=    0.000
 Gap=     0.356 Goal=   None    Shift=    0.000
 RMSDP=9.06D-06 MaxDP=1.78D-04 DE=-3.04D-09 OVMax= 1.30D-03

 Cycle  32  Pass 1  IDiag  1:
 Density matrix breaks symmetry, PCut= 1.00D-04
 Density matrix has no symmetry -- integrals replicated.
 E= -24.6524637128900     Delta-E=        0.000000002691 Rises=F Damp=F
 DIIS: error= 4.87D-07 at cycle  32 NSaved=   3.
 NSaved= 3 IEnMin= 2 EnMin= -24.6524637155812     IErMin= 2 ErrMin= 4.85D-07
 ErrMax= 4.87D-07  0.00D+00 EMaxC= 1.00D-01 BMatC= 2.71D-12 BMatP= 2.71D-12
 IDIUse=1 WtCom= 1.00D+00 WtEn= 0.00D+00
 Large coefficients: NSaved=  3 BigCof=  350.42 CofMax=   10.00 Det=-5.93D-18
 Inversion failed.  Reducing to  2 matrices.
 Coeff-Com:  0.142D+00 0.858D+00
 Coeff:      0.142D+00 0.858D+00
 Gap=     0.175 Goal=   None    Shift=    0.000
 Gap=     0.356 Goal=   None    Shift=    0.000
 RMSDP=1.32D-06 MaxDP=2.59D-05 DE= 2.69D-09 OVMax= 1.89D-04

 Cycle  33  Pass 1  IDiag  1:
 Density matrix breaks symmetry, PCut= 1.00D-04
 Density matrix has no symmetry -- integrals replicated.
 E= -24.6524637132833     Delta-E=       -0.000000000393 Rises=F Damp=F
 DIIS: error= 4.87D-07 at cycle  33 NSaved=   3.
 NSaved= 3 IEnMin= 1 EnMin= -24.6524637155812     IErMin= 1 ErrMin= 4.85D-07
 ErrMax= 4.87D-07  0.00D+00 EMaxC= 1.00D-01 BMatC= 2.70D-12 BMatP= 2.71D-12
 IDIUse=1 WtCom= 1.00D+00 WtEn= 0.00D+00
 Large coefficients: NSaved=  3 BigCof=  766.34 CofMax=   10.00 Det=-2.19D-18
 Inversion failed.  Reducing to  2 matrices.
 Large coefficients: NSaved=  2 BigCof=  519.66 CofMax=   10.00 Det=-3.34D-18
 Coeff-Com: -0.519D+03 0.520D+03
 Coeff:     -0.519D+03 0.520D+03
 Gap=     0.175 Goal=   None    Shift=    0.000
 Gap=     0.356 Goal=   None    Shift=    0.000
 RMSDP=6.76D-04 MaxDP=1.34D-02 DE=-3.93D-10 OVMax= 9.67D-02

 Cycle  34  Pass 1  IDiag  1:
 Density matrix breaks symmetry, PCut= 1.00D-04
 Density matrix has no symmetry -- integrals replicated.
 E= -24.6524630287571     Delta-E=        0.000000684526 Rises=F Damp=F
 DIIS: error= 2.25D-04 at cycle  34 NSaved=   3.
 NSaved= 3 IEnMin= 2 EnMin= -24.6524637132833     IErMin= 2 ErrMin= 4.87D-07
 ErrMax= 2.25D-04  0.00D+00 EMaxC= 1.00D-01 BMatC= 2.90D-06 BMatP= 2.70D-12
 IDIUse=1 WtCom= 1.00D+00 WtEn= 0.00D+00
 Large coefficients: NSaved=  3 BigCof=  715.99 CofMax=   10.00 Det=-2.22D-18
 Inversion failed.  Reducing to  2 matrices.
 Coeff-Com:  0.100D+01 0.797D-04
 Coeff:      0.100D+01 0.797D-04
 Gap=     0.174 Goal=   None    Shift=    0.000
 Gap=     0.357 Goal=   None    Shift=    0.000
 RMSDP=6.76D-04 MaxDP=1.34D-02 DE= 6.85D-07 OVMax= 9.67D-02

 Cycle  35  Pass 1  IDiag  1:
 Density matrix breaks symmetry, PCut= 1.00D-04
 Density matrix has no symmetry -- integrals replicated.
 E= -24.6524637133109     Delta-E=       -0.000000684554 Rises=F Damp=F
 DIIS: error= 4.87D-07 at cycle  35 NSaved=   3.
 NSaved= 3 IEnMin= 3 EnMin= -24.6524637133109     IErMin= 1 ErrMin= 4.87D-07
 ErrMax= 4.87D-07  0.00D+00 EMaxC= 1.00D-01 BMatC= 2.72D-12 BMatP= 2.70D-12
 IDIUse=1 WtCom= 1.00D+00 WtEn= 0.00D+00
 Large coefficients: NSaved=  3 BigCof=   22.66 CofMax=   10.00 Det=-2.82D-16
 Inversion failed.  Reducing to  2 matrices.
 Coeff-Com:  0.134D-03 0.100D+01
 Coeff:      0.134D-03 0.100D+01
 Gap=     0.175 Goal=   None    Shift=    0.000
 Gap=     0.356 Goal=   None    Shift=    0.000
 RMSDP=1.29D-07 MaxDP=2.55D-06 DE=-6.85D-07 OVMax= 1.85D-05

 Cycle  36  Pass 1  IDiag  1:
 Density matrix breaks symmetry, PCut= 1.00D-04
 Density matrix has no symmetry -- integrals replicated.
 E= -24.6524637133494     Delta-E=       -0.000000000038 Rises=F Damp=F
 DIIS: error= 4.87D-07 at cycle  36 NSaved=   3.
 NSaved= 3 IEnMin= 3 EnMin= -24.6524637133494     IErMin= 2 ErrMin= 4.87D-07
 ErrMax= 4.87D-07  0.00D+00 EMaxC= 1.00D-01 BMatC= 2.76D-12 BMatP= 2.72D-12
 IDIUse=1 WtCom= 1.00D+00 WtEn= 0.00D+00
 Large coefficients: NSaved=  3 BigCof=   42.30 CofMax=   10.00 Det=-1.66D-16
 Inversion failed.  Reducing to  2 matrices.
 Coeff-Com:  0.265D+01-0.165D+01
 Coeff:      0.265D+01-0.165D+01
 Gap=     0.175 Goal=   None    Shift=    0.000
 Gap=     0.356 Goal=   None    Shift=    0.000
 RMSDP=3.03D-07 MaxDP=5.96D-06 DE=-3.85D-11 OVMax= 4.34D-05

 Cycle  37  Pass 1  IDiag  1:
 Density matrix breaks symmetry, PCut= 1.00D-04
 Density matrix has no symmetry -- integrals replicated.
 E= -24.6524637132592     Delta-E=        0.000000000090 Rises=F Damp=F
 DIIS: error= 4.87D-07 at cycle  37 NSaved=   3.
 NSaved= 3 IEnMin= 2 EnMin= -24.6524637133494     IErMin= 3 ErrMin= 4.87D-07
 ErrMax= 4.87D-07  0.00D+00 EMaxC= 1.00D-01 BMatC= 2.70D-12 BMatP= 2.72D-12
 IDIUse=1 WtCom= 1.00D+00 WtEn= 0.00D+00
 Coeff-Com: -0.131D+01 0.705D+00 0.160D+01
 Coeff:     -0.131D+01 0.705D+00 0.160D+01
 Gap=     0.175 Goal=   None    Shift=    0.000
 Gap=     0.356 Goal=   None    Shift=    0.000
 RMSDP=2.53D-08 MaxDP=4.97D-07 DE= 9.02D-11 OVMax= 3.63D-06

 Cycle  38  Pass 1  IDiag  1:
 Density matrix breaks symmetry, PCut= 1.00D-04
 Density matrix has no symmetry -- integrals replicated.
 E= -24.6524637132668     Delta-E=       -0.000000000008 Rises=F Damp=F
 DIIS: error= 4.87D-07 at cycle  38 NSaved=   4.
 NSaved= 4 IEnMin= 2 EnMin= -24.6524637133494     IErMin= 3 ErrMin= 4.87D-07
 ErrMax= 4.87D-07  0.00D+00 EMaxC= 1.00D-01 BMatC= 2.70D-12 BMatP= 2.70D-12
 IDIUse=1 WtCom= 1.00D+00 WtEn= 0.00D+00
 Large coefficients: NSaved=  4 BigCof=   25.49 CofMax=   10.00 Det=-9.62D-18
 Inversion failed.  Reducing to  3 matrices.
 Coeff-Com: -0.195D+00-0.702D+01 0.821D+01
 Coeff:     -0.195D+00-0.702D+01 0.821D+01
 Gap=     0.175 Goal=   None    Shift=    0.000
 Gap=     0.356 Goal=   None    Shift=    0.000
 RMSDP=1.63D-07 MaxDP=3.20D-06 DE=-7.54D-12 OVMax= 2.33D-05

 Cycle  39  Pass 1  IDiag  1:
 Density matrix breaks symmetry, PCut= 1.00D-04
 Density matrix has no symmetry -- integrals replicated.
 E= -24.6524637133152     Delta-E=       -0.000000000048 Rises=F Damp=F
 DIIS: error= 4.87D-07 at cycle  39 NSaved=   4.
 NSaved= 4 IEnMin= 1 EnMin= -24.6524637133494     IErMin= 4 ErrMin= 4.87D-07
 ErrMax= 4.87D-07  0.00D+00 EMaxC= 1.00D-01 BMatC= 2.70D-12 BMatP= 2.70D-12
 IDIUse=1 WtCom= 1.00D+00 WtEn= 0.00D+00
 Large coefficients: NSaved=  4 BigCof=   39.86 CofMax=   10.00 Det=-5.43D-18
 Inversion failed.  Reducing to  3 matrices.
 Coeff-Com: -0.881D-02-0.350D+01 0.451D+01
 Coeff:     -0.881D-02-0.350D+01 0.451D+01
 Gap=     0.175 Goal=   None    Shift=    0.000
 Gap=     0.356 Goal=   None    Shift=    0.000
 RMSDP=6.07D-07 MaxDP=1.19D-05 DE=-4.85D-11 OVMax= 8.70D-05

 Cycle  40  Pass 1  IDiag  1:
 Density matrix breaks symmetry, PCut= 1.00D-04
 Density matrix has no symmetry -- integrals replicated.
 E= -24.6524637134960     Delta-E=       -0.000000000181 Rises=F Damp=F
 DIIS: error= 4.87D-07 at cycle  40 NSaved=   4.
 NSaved= 4 IEnMin= 4 EnMin= -24.6524637134960     IErMin= 4 ErrMin= 4.87D-07
 ErrMax= 4.87D-07  0.00D+00 EMaxC= 1.00D-01 BMatC= 2.70D-12 BMatP= 2.70D-12
 IDIUse=1 WtCom= 1.00D+00 WtEn= 0.00D+00
 Large coefficients: NSaved=  4 BigCof=   55.28 CofMax=   10.00 Det=-1.42D-17
 Inversion failed.  Reducing to  3 matrices.
 Large coefficients: NSaved=  3 BigCof=   10.84 CofMax=   10.00 Det=-9.29D-17
 Inversion failed.  Reducing to  2 matrices.
 Coeff-Com: -0.758D+01 0.858D+01
 Coeff:     -0.758D+01 0.858D+01
 Gap=     0.175 Goal=   None    Shift=    0.000
 Gap=     0.356 Goal=   None    Shift=    0.000
 RMSDP=4.64D-06 MaxDP=9.12D-05 DE=-1.81D-10 OVMax= 6.65D-04

 Cycle  41  Pass 1  IDiag  1:
 Density matrix breaks symmetry, PCut= 1.00D-04
 Density matrix has no symmetry -- integrals replicated.
 E= -24.6524637148763     Delta-E=       -0.000000001380 Rises=F Damp=F
 DIIS: error= 4.86D-07 at cycle  41 NSaved=   3.
 NSaved= 3 IEnMin= 3 EnMin= -24.6524637148763     IErMin= 3 ErrMin= 4.86D-07
 ErrMax= 4.86D-07  0.00D+00 EMaxC= 1.00D-01 BMatC= 2.70D-12 BMatP= 2.70D-12
 IDIUse=1 WtCom= 1.00D+00 WtEn= 0.00D+00
 Large coefficients: NSaved=  3 BigCof=   15.41 CofMax=   10.00 Det=-7.57D-17
 Inversion failed.  Reducing to  2 matrices.
 Coeff-Com:  0.316D+00 0.684D+00
 Coeff:      0.316D+00 0.684D+00
 Gap=     0.175 Goal=   None    Shift=    0.000
 Gap=     0.356 Goal=   None    Shift=    0.000
 RMSDP=1.43D-06 MaxDP=2.81D-05 DE=-1.38D-09 OVMax= 2.05D-04

 Cycle  42  Pass 1  IDiag  1:
 Density matrix breaks symmetry, PCut= 1.00D-04
 Density matrix has no symmetry -- integrals replicated.
 E= -24.6524637144522     Delta-E=        0.000000000424 Rises=F Damp=F
 DIIS: error= 4.86D-07 at cycle  42 NSaved=   3.
 NSaved= 3 IEnMin= 2 EnMin= -24.6524637148763     IErMin= 2 ErrMin= 4.86D-07
 ErrMax= 4.86D-07  0.00D+00 EMaxC= 1.00D-01 BMatC= 2.69D-12 BMatP= 2.70D-12
 IDIUse=1 WtCom= 1.00D+00 WtEn= 0.00D+00
 Large coefficients: NSaved=  3 BigCof=  158.30 CofMax=   10.00 Det=-2.95D-17
 Inversion failed.  Reducing to  2 matrices.
 Coeff-Com:  0.303D+00 0.697D+00
 Coeff:      0.303D+00 0.697D+00
 Gap=     0.175 Goal=   None    Shift=    0.000
 Gap=     0.356 Goal=   None    Shift=    0.000
 RMSDP=4.72D-07 MaxDP=9.28D-06 DE= 4.24D-10 OVMax= 6.77D-05

 Cycle  43  Pass 1  IDiag  1:
 Density matrix breaks symmetry, PCut= 1.00D-04
 Density matrix has no symmetry -- integrals replicated.
 E= -24.6524637145926     Delta-E=       -0.000000000140 Rises=F Damp=F
 DIIS: error= 4.86D-07 at cycle  43 NSaved=   3.
 NSaved= 3 IEnMin= 1 EnMin= -24.6524637148763     IErMin= 1 ErrMin= 4.86D-07
 ErrMax= 4.86D-07  0.00D+00 EMaxC= 1.00D-01 BMatC= 2.69D-12 BMatP= 2.69D-12
 IDIUse=1 WtCom= 1.00D+00 WtEn= 0.00D+00
 Large coefficients: NSaved=  3 BigCof=   24.02 CofMax=   10.00 Det=-2.07D-17
 Inversion failed.  Reducing to  2 matrices.
 Coeff-Com: -0.237D+01 0.337D+01
 Coeff:     -0.237D+01 0.337D+01
 Gap=     0.175 Goal=   None    Shift=    0.000
 Gap=     0.356 Goal=   None    Shift=    0.000
 RMSDP=1.16D-06 MaxDP=2.28D-05 DE=-1.40D-10 OVMax= 1.66D-04

 Cycle  44  Pass 1  IDiag  1:
 Density matrix breaks symmetry, PCut= 1.00D-04
 Density matrix has no symmetry -- integrals replicated.
 E= -24.6524637149369     Delta-E=       -0.000000000344 Rises=F Damp=F
 DIIS: error= 4.85D-07 at cycle  44 NSaved=   3.
 NSaved= 3 IEnMin= 3 EnMin= -24.6524637149369     IErMin= 3 ErrMin= 4.85D-07
 ErrMax= 4.85D-07  0.00D+00 EMaxC= 1.00D-01 BMatC= 2.69D-12 BMatP= 2.69D-12
 IDIUse=1 WtCom= 1.00D+00 WtEn= 0.00D+00
 Large coefficients: NSaved=  3 BigCof=   29.76 CofMax=   10.00 Det=-3.13D-17
 Inversion failed.  Reducing to  2 matrices.
 Large coefficients: NSaved=  2 BigCof=   22.30 CofMax=   10.00 Det=-7.33D-17
 Coeff-Com: -0.213D+02 0.223D+02
 Coeff:     -0.213D+02 0.223D+02
 Gap=     0.175 Goal=   None    Shift=    0.000
 Gap=     0.356 Goal=   None    Shift=    0.000
 RMSDP=2.47D-05 MaxDP=4.86D-04 DE=-3.44D-10 OVMax= 3.54D-03

 Cycle  45  Pass 1  IDiag  1:
 Density matrix breaks symmetry, PCut= 1.00D-04
 Density matrix has no symmetry -- integrals replicated.
 E= -24.6524637222200     Delta-E=       -0.000000007283 Rises=F Damp=F
 DIIS: error= 4.77D-07 at cycle  45 NSaved=   3.
 NSaved= 3 IEnMin= 3 EnMin= -24.6524637222200     IErMin= 3 ErrMin= 4.77D-07
 ErrMax= 4.77D-07  0.00D+00 EMaxC= 1.00D-01 BMatC= 8.24D-12 BMatP= 2.69D-12
 IDIUse=1 WtCom= 1.00D+00 WtEn= 0.00D+00
 Large coefficients: NSaved=  3 BigCof=   59.72 CofMax=   10.00 Det=-2.48D-17
 Inversion failed.  Reducing to  2 matrices.
 Coeff-Com:  0.994D+00 0.624D-02
 Coeff:      0.994D+00 0.624D-02
 Gap=     0.175 Goal=   None    Shift=    0.000
 Gap=     0.356 Goal=   None    Shift=    0.000
 RMSDP=2.45D-05 MaxDP=4.83D-04 DE=-7.28D-09 OVMax= 3.52D-03

 Cycle  46  Pass 1  IDiag  1:
 Density matrix breaks symmetry, PCut= 1.00D-04
 Density matrix has no symmetry -- integrals replicated.
 E= -24.6524637149944     Delta-E=        0.000000007226 Rises=F Damp=F
 DIIS: error= 4.85D-07 at cycle  46 NSaved=   3.
 NSaved= 3 IEnMin= 2 EnMin= -24.6524637222200     IErMin= 2 ErrMin= 4.77D-07
 ErrMax= 4.85D-07  0.00D+00 EMaxC= 1.00D-01 BMatC= 2.69D-12 BMatP= 2.69D-12
 IDIUse=1 WtCom= 1.00D+00 WtEn= 0.00D+00
 Large coefficients: NSaved=  3 BigCof=   26.14 CofMax=   10.00 Det=-2.78D-17
 Inversion failed.  Reducing to  2 matrices.
 Coeff-Com:  0.138D-01 0.986D+00
 Coeff:      0.138D-01 0.986D+00
 Gap=     0.175 Goal=   None    Shift=    0.000
 Gap=     0.356 Goal=   None    Shift=    0.000
 RMSDP=3.77D-07 MaxDP=7.41D-06 DE= 7.23D-09 OVMax= 5.40D-05

 Cycle  47  Pass 1  IDiag  1:
 Density matrix breaks symmetry, PCut= 1.00D-04
 Density matrix has no symmetry -- integrals replicated.
 E= -24.6524637151063     Delta-E=       -0.000000000112 Rises=F Damp=F
 DIIS: error= 4.85D-07 at cycle  47 NSaved=   3.
 NSaved= 3 IEnMin= 1 EnMin= -24.6524637222200     IErMin= 1 ErrMin= 4.77D-07
 ErrMax= 4.85D-07  0.00D+00 EMaxC= 1.00D-01 BMatC= 2.68D-12 BMatP= 2.69D-12
 IDIUse=1 WtCom= 1.00D+00 WtEn= 0.00D+00
 Large coefficients: NSaved=  3 BigCof=  771.13 CofMax=   10.00 Det=-1.18D-18
 Inversion failed.  Reducing to  2 matrices.
 Coeff-Com: -0.333D+00 0.133D+01
 Coeff:     -0.333D+00 0.133D+01
 Gap=     0.175 Goal=   None    Shift=    0.000
 Gap=     0.356 Goal=   None    Shift=    0.000
 RMSDP=1.65D-07 MaxDP=3.24D-06 DE=-1.12D-10 OVMax= 2.36D-05

 Cycle  48  Pass 1  IDiag  1:
 Density matrix breaks symmetry, PCut= 1.00D-04
 Density matrix has no symmetry -- integrals replicated.
 E= -24.6524637151552     Delta-E=       -0.000000000049 Rises=F Damp=F
 DIIS: error= 4.85D-07 at cycle  48 NSaved=   3.
 NSaved= 3 IEnMin= 3 EnMin= -24.6524637151552     IErMin= 3 ErrMin= 4.85D-07
 ErrMax= 4.85D-07  0.00D+00 EMaxC= 1.00D-01 BMatC= 2.68D-12 BMatP= 2.68D-12
 IDIUse=1 WtCom= 1.00D+00 WtEn= 0.00D+00
 Large coefficients: NSaved=  3 BigCof=   45.40 CofMax=   10.00 Det=-1.49D-17
 Inversion failed.  Reducing to  2 matrices.
 Coeff-Com: -0.242D+00 0.124D+01
 Coeff:     -0.242D+00 0.124D+01
 Gap=     0.175 Goal=   None    Shift=    0.000
 Gap=     0.356 Goal=   None    Shift=    0.000
 RMSDP=7.90D-08 MaxDP=1.55D-06 DE=-4.89D-11 OVMax= 1.13D-05

 Cycle  49  Pass 1  IDiag  1:
 Density matrix breaks symmetry, PCut= 1.00D-04
 Density matrix has no symmetry -- integrals replicated.
 E= -24.6524637151786     Delta-E=       -0.000000000023 Rises=F Damp=F
 DIIS: error= 4.85D-07 at cycle  49 NSaved=   3.
 NSaved= 3 IEnMin= 3 EnMin= -24.6524637151786     IErMin= 3 ErrMin= 4.85D-07
 ErrMax= 4.85D-07  0.00D+00 EMaxC= 1.00D-01 BMatC= 2.68D-12 BMatP= 2.68D-12
 IDIUse=1 WtCom= 1.00D+00 WtEn= 0.00D+00
 Coeff-Com: -0.404D+00-0.273D+01 0.414D+01
 Coeff:     -0.404D+00-0.273D+01 0.414D+01
 Gap=     0.175 Goal=   None    Shift=    0.000
 Gap=     0.356 Goal=   None    Shift=    0.000
 RMSDP=3.54D-07 MaxDP=6.95D-06 DE=-2.34D-11 OVMax= 5.07D-05

 Cycle  50  Pass 1  IDiag  1:
 Density matrix breaks symmetry, PCut= 1.00D-04
 Density matrix has no symmetry -- integrals replicated.
 E= -24.6524637152836     Delta-E=       -0.000000000105 Rises=F Damp=F
 DIIS: error= 4.85D-07 at cycle  50 NSaved=   4.
 NSaved= 4 IEnMin= 4 EnMin= -24.6524637152836     IErMin= 4 ErrMin= 4.85D-07
 ErrMax= 4.85D-07  0.00D+00 EMaxC= 1.00D-01 BMatC= 2.68D-12 BMatP= 2.68D-12
 IDIUse=1 WtCom= 1.00D+00 WtEn= 0.00D+00
 Large coefficients: NSaved=  4 BigCof=   46.79 CofMax=   10.00 Det=-1.32D-17
 Inversion failed.  Reducing to  3 matrices.
 Large coefficients: NSaved=  3 BigCof=   21.56 CofMax=   10.00 Det=-2.48D-17
 Inversion failed.  Reducing to  2 matrices.
 Large coefficients: NSaved=  2 BigCof=   16.87 CofMax=   10.00 Det=-3.21D-17
 Coeff-Com: -0.159D+02 0.169D+02
 Coeff:     -0.159D+02 0.169D+02
 Gap=     0.175 Goal=   None    Shift=    0.000
 Gap=     0.356 Goal=   None    Shift=    0.000
 RMSDP=5.65D-06 MaxDP=1.11D-04 DE=-1.05D-10 OVMax= 8.09D-04

 Cycle  51  Pass 1  IDiag  1:
 Density matrix breaks symmetry, PCut= 1.00D-04
 Density matrix has no symmetry -- integrals replicated.
 E= -24.6524637169570     Delta-E=       -0.000000001673 Rises=F Damp=F
 DIIS: error= 4.84D-07 at cycle  51 NSaved=   3.
 NSaved= 3 IEnMin= 3 EnMin= -24.6524637169570     IErMin= 3 ErrMin= 4.84D-07
 ErrMax= 4.84D-07  0.00D+00 EMaxC= 1.00D-01 BMatC= 2.68D-12 BMatP= 2.68D-12
 IDIUse=1 WtCom= 1.00D+00 WtEn= 0.00D+00
 Large coefficients: NSaved=  3 BigCof=   14.18 CofMax=   10.00 Det=-1.87D-17
 Inversion failed.  Reducing to  2 matrices.
 Coeff-Com:  0.431D+00 0.569D+00
 Coeff:      0.431D+00 0.569D+00
 Gap=     0.175 Goal=   None    Shift=    0.000
 Gap=     0.356 Goal=   None    Shift=    0.000
 RMSDP=2.39D-06 MaxDP=4.71D-05 DE=-1.67D-09 OVMax= 3.43D-04

 Cycle  52  Pass 1  IDiag  1:
 Density matrix breaks symmetry, PCut= 1.00D-04
 Density matrix has no symmetry -- integrals replicated.
 E= -24.6524637162486     Delta-E=        0.000000000708 Rises=F Damp=F
 DIIS: error= 4.84D-07 at cycle  52 NSaved=   3.
 NSaved= 3 IEnMin= 2 EnMin= -24.6524637169570     IErMin= 2 ErrMin= 4.84D-07
 ErrMax= 4.84D-07  0.00D+00 EMaxC= 1.00D-01 BMatC= 2.67D-12 BMatP= 2.68D-12
 IDIUse=1 WtCom= 1.00D+00 WtEn= 0.00D+00
 Large coefficients: NSaved=  3 BigCof=   30.61 CofMax=   10.00 Det=-1.83D-16
 Inversion failed.  Reducing to  2 matrices.
 Coeff-Com:  0.328D+00 0.672D+00
 Coeff:      0.328D+00 0.672D+00
 Gap=     0.175 Goal=   None    Shift=    0.000
 Gap=     0.356 Goal=   None    Shift=    0.000
 RMSDP=8.25D-07 MaxDP=1.62D-05 DE= 7.08D-10 OVMax= 1.18D-04

 Cycle  53  Pass 1  IDiag  1:
 Density matrix breaks symmetry, PCut= 1.00D-04
 Density matrix has no symmetry -- integrals replicated.
 E= -24.6524637164927     Delta-E=       -0.000000000244 Rises=F Damp=F
 DIIS: error= 4.84D-07 at cycle  53 NSaved=   3.
 NSaved= 3 IEnMin= 1 EnMin= -24.6524637169570     IErMin= 1 ErrMin= 4.84D-07
 ErrMax= 4.84D-07  0.00D+00 EMaxC= 1.00D-01 BMatC= 2.67D-12 BMatP= 2.67D-12
 IDIUse=1 WtCom= 1.00D+00 WtEn= 0.00D+00
 Large coefficients: NSaved=  3 BigCof=   12.20 CofMax=   10.00 Det=-9.45D-17
 Inversion failed.  Reducing to  2 matrices.
 Coeff-Com: -0.247D+01 0.347D+01
 Coeff:     -0.247D+01 0.347D+01
 Gap=     0.175 Goal=   None    Shift=    0.000
 Gap=     0.356 Goal=   None    Shift=    0.000
 RMSDP=2.08D-06 MaxDP=4.09D-05 DE=-2.44D-10 OVMax= 2.98D-04

 Cycle  54  Pass 1  IDiag  1:
 Density matrix breaks symmetry, PCut= 1.00D-04
 Density matrix has no symmetry -- integrals replicated.
 E= -24.6524637171077     Delta-E=       -0.000000000615 Rises=F Damp=F
 DIIS: error= 4.83D-07 at cycle  54 NSaved=   3.
 NSaved= 3 IEnMin= 3 EnMin= -24.6524637171077     IErMin= 3 ErrMin= 4.83D-07
 ErrMax= 4.83D-07  0.00D+00 EMaxC= 1.00D-01 BMatC= 2.66D-12 BMatP= 2.67D-12
 IDIUse=1 WtCom= 1.00D+00 WtEn= 0.00D+00
 Large coefficients: NSaved=  3 BigCof=   20.51 CofMax=   10.00 Det=-4.25D-17
 Inversion failed.  Reducing to  2 matrices.
 Coeff-Com: -0.409D+01 0.509D+01
 Coeff:     -0.409D+01 0.509D+01
 Gap=     0.175 Goal=   None    Shift=    0.000
 Gap=     0.356 Goal=   None    Shift=    0.000
 RMSDP=8.55D-06 MaxDP=1.68D-04 DE=-6.15D-10 OVMax= 1.22D-03

 Cycle  55  Pass 1  IDiag  1:
 Density matrix breaks symmetry, PCut= 1.00D-04
 Density matrix has no symmetry -- integrals replicated.
 E= -24.6524637196274     Delta-E=       -0.000000002520 Rises=F Damp=F
 DIIS: error= 4.81D-07 at cycle  55 NSaved=   3.
 NSaved= 3 IEnMin= 3 EnMin= -24.6524637196274     IErMin= 3 ErrMin= 4.81D-07
 ErrMax= 4.81D-07  0.00D+00 EMaxC= 1.00D-01 BMatC= 2.75D-12 BMatP= 2.66D-12
 IDIUse=1 WtCom= 1.00D+00 WtEn= 0.00D+00
 Large coefficients: NSaved=  3 BigCof=   40.95 CofMax=   10.00 Det=-4.97D-17
 Inversion failed.  Reducing to  2 matrices.
 Coeff-Com:  0.921D+00 0.794D-01
 Coeff:      0.921D+00 0.794D-01
 Gap=     0.175 Goal=   None    Shift=    0.000
 Gap=     0.356 Goal=   None    Shift=    0.000
 RMSDP=7.83D-06 MaxDP=1.54D-04 DE=-2.52D-09 OVMax= 1.12D-03

 Cycle  56  Pass 1  IDiag  1:
 Density matrix breaks symmetry, PCut= 1.00D-04
 Density matrix has no symmetry -- integrals replicated.
 E= -24.6524637173197     Delta-E=        0.000000002308 Rises=F Damp=F
 DIIS: error= 4.83D-07 at cycle  56 NSaved=   3.
 NSaved= 3 IEnMin= 2 EnMin= -24.6524637196274     IErMin= 2 ErrMin= 4.81D-07
 ErrMax= 4.83D-07  0.00D+00 EMaxC= 1.00D-01 BMatC= 2.66D-12 BMatP= 2.66D-12
 IDIUse=1 WtCom= 1.00D+00 WtEn= 0.00D+00
 Large coefficients: NSaved=  3 BigCof=  131.33 CofMax=   10.00 Det=-2.14D-17
 Inversion failed.  Reducing to  2 matrices.
 Coeff-Com:  0.153D+00 0.847D+00
 Coeff:      0.153D+00 0.847D+00
 Gap=     0.175 Goal=   None    Shift=    0.000
 Gap=     0.356 Goal=   None    Shift=    0.000
 RMSDP=1.24D-06 MaxDP=2.44D-05 DE= 2.31D-09 OVMax= 1.77D-04

 Cycle  57  Pass 1  IDiag  1:
 Density matrix breaks symmetry, PCut= 1.00D-04
 Density matrix has no symmetry -- integrals replicated.
 E= -24.6524637176856     Delta-E=       -0.000000000366 Rises=F Damp=F
 DIIS: error= 4.83D-07 at cycle  57 NSaved=   3.
 NSaved= 3 IEnMin= 1 EnMin= -24.6524637196274     IErMin= 1 ErrMin= 4.81D-07
 ErrMax= 4.83D-07  0.00D+00 EMaxC= 1.00D-01 BMatC= 2.66D-12 BMatP= 2.66D-12
 IDIUse=1 WtCom= 1.00D+00 WtEn= 0.00D+00
 Large coefficients: NSaved=  3 BigCof=  981.99 CofMax=   10.00 Det=-2.52D-18
 Inversion failed.  Reducing to  2 matrices.
 Large coefficients: NSaved=  2 BigCof=   19.16 CofMax=   10.00 Det=-1.04D-16
 Coeff-Com: -0.182D+02 0.192D+02
 Coeff:     -0.182D+02 0.192D+02
 Gap=     0.175 Goal=   None    Shift=    0.000
 Gap=     0.356 Goal=   None    Shift=    0.000
 RMSDP=2.25D-05 MaxDP=4.43D-04 DE=-3.66D-10 OVMax= 3.23D-03

 Cycle  58  Pass 1  IDiag  1:
 Density matrix breaks symmetry, PCut= 1.00D-04
 Density matrix has no symmetry -- integrals replicated.
 E= -24.6524637242823     Delta-E=       -0.000000006597 Rises=F Damp=F
 DIIS: error= 4.74D-07 at cycle  58 NSaved=   3.
 NSaved= 3 IEnMin= 3 EnMin= -24.6524637242823     IErMin= 3 ErrMin= 4.74D-07
 ErrMax= 4.74D-07  0.00D+00 EMaxC= 1.00D-01 BMatC= 6.41D-12 BMatP= 2.66D-12
 IDIUse=1 WtCom= 1.00D+00 WtEn= 0.00D+00
 Large coefficients: NSaved=  3 BigCof=  858.52 CofMax=   10.00 Det=-2.81D-18
 Inversion failed.  Reducing to  2 matrices.
 Coeff-Com:  0.974D+00 0.261D-01
 Coeff:      0.974D+00 0.261D-01
 Gap=     0.175 Goal=   None    Shift=    0.000
 Gap=     0.356 Goal=   None    Shift=    0.000
 RMSDP=2.19D-05 MaxDP=4.31D-04 DE=-6.60D-09 OVMax= 3.14D-03

 Cycle  59  Pass 1  IDiag  1:
 Density matrix breaks symmetry, PCut= 1.00D-04
 Density matrix has no symmetry -- integrals replicated.
 E= -24.6524637178709     Delta-E=        0.000000006411 Rises=F Damp=F
 DIIS: error= 4.83D-07 at cycle  59 NSaved=   3.
 NSaved= 3 IEnMin= 2 EnMin= -24.6524637242823     IErMin= 2 ErrMin= 4.74D-07
 ErrMax= 4.83D-07  0.00D+00 EMaxC= 1.00D-01 BMatC= 2.66D-12 BMatP= 2.66D-12
 IDIUse=1 WtCom= 1.00D+00 WtEn= 0.00D+00
 Large coefficients: NSaved=  3 BigCof=  286.33 CofMax=   10.00 Det=-5.47D-18
 Inversion failed.  Reducing to  2 matrices.
 Coeff-Com:  0.350D-01 0.965D+00
 Coeff:      0.350D-01 0.965D+00
 Gap=     0.175 Goal=   None    Shift=    0.000
 Gap=     0.356 Goal=   None    Shift=    0.000
 RMSDP=8.05D-07 MaxDP=1.58D-05 DE= 6.41D-09 OVMax= 1.15D-04

 Cycle  60  Pass 1  IDiag  1:
 Density matrix breaks symmetry, PCut= 1.00D-04
 Density matrix has no symmetry -- integrals replicated.
 E= -24.6524637181083     Delta-E=       -0.000000000237 Rises=F Damp=F
 DIIS: error= 4.82D-07 at cycle  60 NSaved=   3.
 NSaved= 3 IEnMin= 1 EnMin= -24.6524637242823     IErMin= 1 ErrMin= 4.74D-07
 ErrMax= 4.82D-07  0.00D+00 EMaxC= 1.00D-01 BMatC= 2.65D-12 BMatP= 2.66D-12
 IDIUse=1 WtCom= 1.00D+00 WtEn= 0.00D+00
 Large coefficients: NSaved=  3 BigCof= 1185.98 CofMax=   10.00 Det=-1.45D-18
 Inversion failed.  Reducing to  2 matrices.
 Coeff-Com: -0.493D+01 0.593D+01
 Coeff:     -0.493D+01 0.593D+01
 Gap=     0.175 Goal=   None    Shift=    0.000
 Gap=     0.356 Goal=   None    Shift=    0.000
 RMSDP=4.00D-06 MaxDP=7.87D-05 DE=-2.37D-10 OVMax= 5.74D-04

 Cycle  61  Pass 1  IDiag  1:
 Density matrix breaks symmetry, PCut= 1.00D-04
 Density matrix has no symmetry -- integrals replicated.
 E= -24.6524637192874     Delta-E=       -0.000000001179 Rises=F Damp=F
 DIIS: error= 4.81D-07 at cycle  61 NSaved=   3.
 NSaved= 3 IEnMin= 3 EnMin= -24.6524637192874     IErMin= 3 ErrMin= 4.81D-07
 ErrMax= 4.81D-07  0.00D+00 EMaxC= 1.00D-01 BMatC= 2.64D-12 BMatP= 2.65D-12
 IDIUse=1 WtCom= 1.00D+00 WtEn= 0.00D+00
 Large coefficients: NSaved=  3 BigCof=  326.97 CofMax=   10.00 Det=-6.45D-18
 Inversion failed.  Reducing to  2 matrices.
 Coeff-Com:  0.783D-01 0.922D+00
 Coeff:      0.783D-01 0.922D+00
 Gap=     0.175 Goal=   None    Shift=    0.000
 Gap=     0.356 Goal=   None    Shift=    0.000
 RMSDP=2.75D-07 MaxDP=5.40D-06 DE=-1.18D-09 OVMax= 3.94D-05

 Cycle  62  Pass 1  IDiag  1:
 Density matrix breaks symmetry, PCut= 1.00D-04
 Density matrix has no symmetry -- integrals replicated.
 E= -24.6524637192066     Delta-E=        0.000000000081 Rises=F Damp=F
 DIIS: error= 4.81D-07 at cycle  62 NSaved=   3.
 NSaved= 3 IEnMin= 2 EnMin= -24.6524637192874     IErMin= 2 ErrMin= 4.81D-07
 ErrMax= 4.81D-07  0.00D+00 EMaxC= 1.00D-01 BMatC= 2.64D-12 BMatP= 2.64D-12
 IDIUse=1 WtCom= 1.00D+00 WtEn= 0.00D+00
 Large coefficients: NSaved=  3 BigCof=   18.05 CofMax=   10.00 Det=-6.23D-16
 Inversion failed.  Reducing to  2 matrices.
 Coeff-Com:  0.155D+00 0.845D+00
 Coeff:      0.155D+00 0.845D+00
 Gap=     0.175 Goal=   None    Shift=    0.000
 Gap=     0.356 Goal=   None    Shift=    0.000
 RMSDP=8.15D-08 MaxDP=1.60D-06 DE= 8.08D-11 OVMax= 1.17D-05

 Cycle  63  Pass 1  IDiag  1:
 Density matrix breaks symmetry, PCut= 1.00D-04
 Density matrix has no symmetry -- integrals replicated.
 E= -24.6524637192306     Delta-E=       -0.000000000024 Rises=F Damp=F
 DIIS: error= 4.81D-07 at cycle  63 NSaved=   3.
 NSaved= 3 IEnMin= 1 EnMin= -24.6524637192874     IErMin= 1 ErrMin= 4.81D-07
 ErrMax= 4.81D-07  0.00D+00 EMaxC= 1.00D-01 BMatC= 2.64D-12 BMatP= 2.64D-12
 IDIUse=1 WtCom= 1.00D+00 WtEn= 0.00D+00
 Coeff-Com: -0.181D+00-0.227D+01 0.345D+01
 Coeff:     -0.181D+00-0.227D+01 0.345D+01
 Gap=     0.175 Goal=   None    Shift=    0.000
 Gap=     0.356 Goal=   None    Shift=    0.000
 RMSDP=1.89D-07 MaxDP=3.72D-06 DE=-2.39D-11 OVMax= 2.71D-05

 Cycle  64  Pass 1  IDiag  1:
 Density matrix breaks symmetry, PCut= 1.00D-04
 Density matrix has no symmetry -- integrals replicated.
 E= -24.6524637192861     Delta-E=       -0.000000000056 Rises=F Damp=F
 DIIS: error= 4.81D-07 at cycle  64 NSaved=   4.
 NSaved= 4 IEnMin= 1 EnMin= -24.6524637192874     IErMin= 4 ErrMin= 4.81D-07
 ErrMax= 4.81D-07  0.00D+00 EMaxC= 1.00D-01 BMatC= 2.64D-12 BMatP= 2.64D-12
 IDIUse=1 WtCom= 1.00D+00 WtEn= 0.00D+00
 Large coefficients: NSaved=  4 BigCof=   91.81 CofMax=   10.00 Det=-7.10D-18
 Inversion failed.  Reducing to  3 matrices.
 Large coefficients: NSaved=  3 BigCof=   41.03 CofMax=   10.00 Det=-8.35D-18
 Inversion failed.  Reducing to  2 matrices.
 Large coefficients: NSaved=  2 BigCof=   19.07 CofMax=   10.00 Det=-1.89D-17
 Coeff-Com: -0.181D+02 0.191D+02
 Coeff:     -0.181D+02 0.191D+02
 Gap=     0.175 Goal=   None    Shift=    0.000
 Gap=     0.356 Goal=   None    Shift=    0.000
 RMSDP=3.45D-06 MaxDP=6.79D-05 DE=-5.55D-11 OVMax= 4.95D-04

 Cycle  65  Pass 1  IDiag  1:
 Density matrix breaks symmetry, PCut= 1.00D-04
 Density matrix has no symmetry -- integrals replicated.
 E= -24.6524637203001     Delta-E=       -0.000000001014 Rises=F Damp=F
 DIIS: error= 4.80D-07 at cycle  65 NSaved=   3.
 NSaved= 3 IEnMin= 3 EnMin= -24.6524637203001     IErMin= 3 ErrMin= 4.80D-07
 ErrMax= 4.80D-07  0.00D+00 EMaxC= 1.00D-01 BMatC= 2.62D-12 BMatP= 2.64D-12
 IDIUse=1 WtCom= 1.00D+00 WtEn= 0.00D+00
 Large coefficients: NSaved=  3 BigCof=  128.18 CofMax=   10.00 Det=-6.18D-18
 Inversion failed.  Reducing to  2 matrices.
 Coeff-Com: -0.135D+01 0.235D+01
 Coeff:     -0.135D+01 0.235D+01
 Gap=     0.175 Goal=   None    Shift=    0.000
 Gap=     0.356 Goal=   None    Shift=    0.000
 RMSDP=4.68D-06 MaxDP=9.21D-05 DE=-1.01D-09 OVMax= 6.71D-04

 Cycle  66  Pass 1  IDiag  1:
 Density matrix breaks symmetry, PCut= 1.00D-04
 Density matrix has no symmetry -- integrals replicated.
 E= -24.6524637216713     Delta-E=       -0.000000001371 Rises=F Damp=F
 DIIS: error= 4.78D-07 at cycle  66 NSaved=   3.
 NSaved= 3 IEnMin= 3 EnMin= -24.6524637216713     IErMin= 3 ErrMin= 4.78D-07
 ErrMax= 4.78D-07  0.00D+00 EMaxC= 1.00D-01 BMatC= 2.62D-12 BMatP= 2.62D-12
 IDIUse=1 WtCom= 1.00D+00 WtEn= 0.00D+00
 Coeff-Com: -0.118D+01 0.206D+01 0.121D+00
 Coeff:     -0.118D+01 0.206D+01 0.121D+00
 Gap=     0.175 Goal=   None    Shift=    0.000
 Gap=     0.356 Goal=   None    Shift=    0.000
 RMSDP=1.66D-10 MaxDP=3.00D-09 DE=-1.37D-09 OVMax= 1.83D-08

 Density matrix breaks symmetry, PCut= 1.00D-04
 Density matrix has no symmetry -- integrals replicated.
 SCF Done:  E(UM062X) =  -24.6524637217     A.U. after   66 cycles
            NFock= 66  Conv=0.17D-09     -V/T= 2.0032
 <Sx>= 0.0000 <Sy>= 0.0000 <Sz>= 0.5000 <S**2>= 0.7523 S= 0.5012
 <L.S>= 0.000000000000E+00
 KE= 2.457396779965D+01 PE=-5.697563114810D+01 EE= 7.749199626772D+00
 Annihilation of the first spin contaminant:
 S**2 before annihilation     0.7523,   after     0.7500
 Leave Link  502 at Sun Apr 18 07:14:54 2021, MaxMem=   104857600 cpu:             947.5 elap:              20.3
 (Enter /s/ls4/users/knvvv/bin/g16sse/l601.exe)
 Copying SCF densities to generalized density rwf, IOpCl= 1 IROHF=0.
 SCF density gives NOpUse=  1 NOpAll= 48.
 Marking SCF density as not fully symmetric.

 **********************************************************************

            Population analysis using the SCF density.

 **********************************************************************

 Orbital symmetries:
 Alpha Orbitals:
       Occupied  (A1G) (?A) (?B)
       Virtual   (?B) (?B) (?B) (?B) (?B) (?A) (?A) (?A) (?A) (?A)
                 (?A) (?B) (?B) (?B) (?A) (?B) (?B) (?B) (?B) (?B)
                 (?B) (?B) (?A) (?A) (?A) (?A) (?A) (?B) (?B) (?B)
                 (?A) (?A) (?A) (?A) (?A) (?A) (?A) (?A) (?A) (?A)
                 (?A) (?A) (?C) (?A) (?A) (?C) (?C) (?C) (?C) (?C)
                 (?C) (A1G) (A1G) (A1G)
 Beta  Orbitals:
       Occupied  (A1G) (?A)
       Virtual   (?B) (?B) (?B) (?B) (?B) (?B) (?A) (?A) (?A) (?A)
                 (?A) (?A) (?B) (?B) (?B) (?A) (?C) (?C) (?C) (?C)
                 (?C) (?C) (?C) (?A) (?A) (?A) (?A) (?A) (?B) (?B)
                 (?B) (?A) (?A) (?A) (?A) (?A) (?A) (?A) (?A) (?A)
                 (?A) (?A) (?D) (?D) (?A) (?A) (?A) (?D) (?D) (?D)
                 (?D) (?D) (?A) (A1G) (A1G)
 Unable to determine electronic state:  an orbital has unidentified symmetry.
 Alpha  occ. eigenvalues --   -7.15280  -0.45502  -0.22636
 Alpha virt. eigenvalues --   -0.05091  -0.05090   0.11114   0.11114   0.12376
 Alpha virt. eigenvalues --    0.15280   0.33025   0.33025   0.33064   0.33344
 Alpha virt. eigenvalues --    0.33344   0.51049   0.52084   0.52084   0.97001
 Alpha virt. eigenvalues --    1.06980   1.06980   1.07233   1.07233   1.07546
 Alpha virt. eigenvalues --    1.07546   1.07672   1.14754   1.14754   1.15324
 Alpha virt. eigenvalues --    1.16906   1.16906   1.82571   1.82572   1.82745
 Alpha virt. eigenvalues --    3.07011   3.07013   3.07612   3.07613   3.07800
 Alpha virt. eigenvalues --    3.07952   3.07955   3.09031   3.09031   3.52861
 Alpha virt. eigenvalues --    3.52862   3.54592   3.54945   3.57169   3.57170
 Alpha virt. eigenvalues --    3.59399   3.59400   3.59785   3.59786   3.59925
 Alpha virt. eigenvalues --    3.59925   4.51336  18.36955  99.75214
  Beta  occ. eigenvalues --   -7.14687  -0.40117
  Beta virt. eigenvalues --   -0.04472  -0.04472  -0.02943   0.10984   0.10984
  Beta virt. eigenvalues --    0.11556   0.12307   0.30431   0.30689   0.30689
  Beta virt. eigenvalues --    0.31671   0.31671   0.51003   0.51003   0.51468
  Beta virt. eigenvalues --    0.95279   1.05026   1.05026   1.05095   1.05495
  Beta virt. eigenvalues --    1.05495   1.06121   1.06121   1.12683   1.12683
  Beta virt. eigenvalues --    1.12922   1.13831   1.13831   1.78482   1.78482
  Beta virt. eigenvalues --    1.81503   3.00653   3.00653   3.00919   3.00919
  Beta virt. eigenvalues --    3.01128   3.01128   3.01724   3.01724   3.01797
  Beta virt. eigenvalues --    3.46760   3.46760   3.52040   3.52040   3.52908
  Beta virt. eigenvalues --    3.52908   3.54843   3.55146   3.55146   3.57458
  Beta virt. eigenvalues --    3.57458   3.58653   4.52658  18.38221  99.75021
          Condensed to atoms (all electrons):
               1
     1  B    5.000000
          Atomic-Atomic Spin Densities.
               1
     1  B    1.000000
 Mulliken charges and spin densities:
               1          2
     1  B   -0.000000   1.000000
 Sum of Mulliken charges =  -0.00000   1.00000
 Mulliken charges and spin densities with hydrogens summed into heavy atoms:
               1          2
     1  B   -0.000000   1.000000
 Electronic spatial extent (au):  <R**2>=             15.7934
 Charge=             -0.0000 electrons
 Dipole moment (field-independent basis, Debye):
    X=             -0.0000    Y=             -0.0000    Z=              0.0000  Tot=              0.0000
 Quadrupole moment (field-independent basis, Debye-Ang):
   XX=             -5.9920   YY=             -7.8012   ZZ=             -7.4494
   XY=             -0.0000   XZ=             -0.0000   YZ=             -1.6238
 Traceless Quadrupole moment (field-independent basis, Debye-Ang):
   XX=              1.0889   YY=             -0.7203   ZZ=             -0.3685
   XY=             -0.0000   XZ=             -0.0000   YZ=             -1.6238
 Octapole moment (field-independent basis, Debye-Ang**2):
  XXX=              0.0000  YYY=             -0.0000  ZZZ=              0.0000  XYY=              0.0000
  XXY=             -0.0000  XXZ=              0.0000  XZZ=              0.0000  YZZ=              0.0000
  YYZ=             -0.0000  XYZ=             -0.0000
 Hexadecapole moment (field-independent basis, Debye-Ang**3):
 XXXX=             -9.2229 YYYY=            -15.4827 ZZZZ=            -14.2690 XXXY=             -0.0000
 XXXZ=             -0.0000 YYYX=             -0.0000 YYYZ=             -2.7990 ZZZX=             -0.0000
 ZZZY=             -2.8030 XXYY=             -4.1213 XXZZ=             -3.9177 YYZZ=             -4.9466
 XXYZ=             -0.9397 YYXZ=             -0.0000 ZZXY=             -0.0000
 N-N= 0.000000000000D+00 E-N=-5.697563113854D+01  KE= 2.457396779965D+01
                          Isotropic Fermi Contact Couplings
        Atom                 a.u.       MegaHertz       Gauss      10(-4) cm-1
     1  B(11)              0.09534     136.75151      48.79634      45.61539
 PrsmSu:  requested number of processors reduced to:  21 ShMem   1 Linda.
 --------------------------------------------------------
       Center         ----  Spin Dipole Couplings  ----
                      3XX-RR        3YY-RR        3ZZ-RR
 --------------------------------------------------------
     1   Atom       -0.338316      0.223808      0.114508
 --------------------------------------------------------
                        XY            XZ            YZ
 --------------------------------------------------------
     1   Atom        0.000000      0.000000      0.504522
 --------------------------------------------------------


 ---------------------------------------------------------------------------------
              Anisotropic Spin Dipole Couplings in Principal Axis System
 ---------------------------------------------------------------------------------

       Atom             a.u.   MegaHertz   Gauss  10(-4) cm-1        Axes

              Baa    -0.3383   -57.925   -20.669   -19.322  1.0000  0.0000  0.0000
     1 B(11)  Bbb    -0.3383   -57.925   -20.669   -19.322  0.0000 -0.6679  0.7442
              Bcc     0.6766   115.849    41.338    38.643 -0.0000  0.7442  0.6679
 

 ---------------------------------------------------------------------------------

 PrsmSu:  requested number of processors reduced to:  21 ShMem   1 Linda.
 No NMR shielding tensors so no spin-rotation constants.
 Leave Link  601 at Sun Apr 18 07:15:03 2021, MaxMem=   104857600 cpu:             417.8 elap:               9.1
 (Enter /s/ls4/users/knvvv/bin/g16sse/l801.exe)
 DoSCS=F DFT=T ScalE2(SS,OS)=  1.000000  1.000000
 Range of M.O.s used for correlation:     1    57
 NBasis=    57 NAE=     3 NBE=     2 NFC=     0 NFV=     0
 NROrb=     57 NOA=     3 NOB=     2 NVA=    54 NVB=    55
 Leave Link  801 at Sun Apr 18 07:15:03 2021, MaxMem=   104857600 cpu:               4.7 elap:               0.1
 (Enter /s/ls4/users/knvvv/bin/g16sse/l914.exe)
 UHF ground state
 Doing stability rather than CIS.
 Keep R1 and R2 ints in memory in symmetry-blocked form, NReq=72103365.
 FoFCou: FMM=F IPFlag=           0 FMFlag=           0 FMFlg1=           0
         NFxFlg=           0 DoJE=F BraDBF=F KetDBF=F FulRan=T
         wScrn=  0.000000 ICntrl=       600 IOpCl=  0 I1Cent=           0 NGrid=           0
         NMat0=    1 NMatS0=   1653 NMatT0=    0 NMatD0=    1 NMtDS0=    0 NMtDT0=    0
 Petite list used in FoFCou.
 CoulSu:  requested number of processors reduced to:  22 ShMem   1 Linda.
 MDV=   104857600 DFT=T DoStab=T Mixed=T DoRPA=F DoScal=F NonHer=F
 Making orbital integer symmetry assigments:
 Orbital symmetries:
 Alpha Orbitals:
       Occupied  (A1G) (?A) (?B)
       Virtual   (?B) (?B) (?B) (?B) (?B) (?A) (?A) (?A) (?A) (?A)
                 (?A) (?B) (?B) (?B) (?A) (?B) (?B) (?B) (?B) (?B)
                 (?B) (?B) (?A) (?A) (?A) (?A) (?A) (?B) (?B) (?B)
                 (?A) (?A) (?A) (?A) (?A) (?A) (?A) (?A) (?A) (?A)
                 (?A) (?A) (?C) (?A) (?A) (?C) (?C) (?C) (?C) (?C)
                 (?C) (A1G) (A1G) (A1G)
 Beta  Orbitals:
       Occupied  (A1G) (?A)
       Virtual   (?B) (?B) (?B) (?B) (?B) (?B) (?A) (?A) (?A) (?A)
                 (?A) (?A) (?B) (?B) (?B) (?A) (?C) (?C) (?C) (?C)
                 (?C) (?C) (?C) (?A) (?A) (?A) (?A) (?A) (?B) (?B)
                 (?B) (?A) (?A) (?A) (?A) (?A) (?A) (?A) (?A) (?A)
                 (?A) (?A) (?D) (?D) (?A) (?A) (?A) (?D) (?D) (?D)
                 (?D) (?D) (?A) (A1G) (A1G)
    24 initial guesses have been made.
 Convergence on wavefunction:    0.001000000000000
 Davidson Disk Diagonalization:  ConvIn= 1.00D-03 SkipCon=T Conv= 1.00D-03.
 Max sub-space:   544 roots to seek:    24 dimension of matrix:          272
 Iteration     1 Dimension    24 NMult     0 NNew     24
 CISAX will form    24 AO SS matrices at one time.
 NMat=    24 NSing=    24 JSym2X= 2.
 Excitation Energies [eV] at current iteration:
 Root      1 :     0.111213540530377
 Root      2 :     0.111571760922756
 Root      3 :     2.956052096169070
 Root      4 :     2.956425983786293
 Root      5 :     6.181176232692421
 Root      6 :     6.623817684553051
 Root      7 :     6.624610936156324
 Root      8 :     7.038827398781652
 Root      9 :     7.108823007739749
 Root     10 :     8.731386688406415
 Root     11 :     8.731652873838755
 Root     12 :    10.481407877733630
 Root     13 :    10.798310338314820
 Root     14 :    10.798313967349880
 Root     15 :    10.933333498146740
 Root     16 :    10.933345008775120
 Root     17 :    12.057599335715380
 Root     18 :    12.379024949112330
 Root     19 :    12.489751200186840
 Root     20 :    12.490111870752050
 Root     21 :    13.826097984235520
 Root     22 :    14.686849265803500
 Root     23 :    14.687120501772260
 Root     24 :    14.940846847146350
 Iteration     2 Dimension    48 NMult    24 NNew     24
 CISAX will form    24 AO SS matrices at one time.
 NMat=    24 NSing=    24 JSym2X= 2.
 Root      1 not converged, maximum delta is    0.041133200507680
 Excitation Energies [eV] at current iteration:
 Root      1 :     0.001090963682910   Change is   -0.110122576847468
 Root      2 :     0.001475240178044   Change is   -0.110096520744712
 Root      3 :     2.489406090621155   Change is   -0.466646005547916
 Root      4 :     2.489909434828400   Change is   -0.466516548957893
 Root      5 :     5.759524252255382   Change is   -0.421651980437039
 Root      6 :     6.469190696326250   Change is   -0.154626988226801
 Root      7 :     6.469928151248126   Change is   -0.154682784908197
 Root      8 :     6.822908271094246   Change is   -0.215919127687406
 Root      9 :     6.970882558222354   Change is   -0.137940449517395
 Root     10 :     8.415966930238202   Change is   -0.315419758168213
 Root     11 :     8.416416001364995   Change is   -0.315236872473761
 Root     12 :    10.397244550320880   Change is   -0.084163327412750
 Root     13 :    10.733688638785690   Change is   -0.064621699529132
 Root     14 :    10.733698640987660   Change is   -0.064615326362225
 Root     15 :    10.917336217012900   Change is   -0.015997281133832
 Root     16 :    10.917345922292860   Change is   -0.015999086482252
 Root     17 :    11.877159905939500   Change is   -0.501865043172833
 Root     18 :    11.906144135410170   Change is   -0.151455200305213
 Root     19 :    12.325183017772330   Change is   -0.164568182414513
 Root     20 :    12.325468271280490   Change is   -0.164643599471560
 Root     21 :    13.628031593121840   Change is   -0.198066391113683
 Root     22 :    13.739621338125440   Change is   -1.201225509020913
 Root     23 :    14.196558370416250   Change is   -0.490290895387250
 Root     24 :    14.196923767679380   Change is   -0.490196734092879
 Iteration     3 Dimension    51 NMult    48 NNew      3
 CISAX will form     3 AO SS matrices at one time.
 NMat=     3 NSing=     3 JSym2X= 2.
 Root      1 not converged, maximum delta is    0.004087222070224
 Excitation Energies [eV] at current iteration:
 Root      1 :     0.000171590409623   Change is   -0.000919373273287
 Root      2 :     0.000555824362065   Change is   -0.000919415815979
 Root      3 :     2.489092211753283   Change is   -0.000313878867872
 Iteration     4 Dimension    54 NMult    51 NNew      3
 CISAX will form     3 AO SS matrices at one time.
 NMat=     3 NSing=     3 JSym2X= 2.
 Root      1 has converged.
 Excitation Energies [eV] at current iteration:
 Root      1 :     0.000165782002406   Change is   -0.000005808407216
 Root      2 :     0.000550017401379   Change is   -0.000005806960686
 Root      3 :     2.489091398559832   Change is   -0.000000813193451
 Convergence achieved on expansion vectors.
 ***********************************************************************
 Stability analysis using <AA,BB:AA,BB> singles matrix:
 ***********************************************************************
 1PDM for each excited state written to RWF  633
 Ground to excited state transition densities written to RWF  633

 Eigenvectors of the stability matrix:
 
 Excited state symmetry could not be determined.
 Eigenvector   1:  2.005-?Sym  Eigenvalue= 0.0000061  <S**2>=0.755
      3A ->  4A        0.98303
      3A ->  6A       -0.17183
 The wavefunction is stable under the perturbations considered.
 Leave Link  914 at Sun Apr 18 07:15:18 2021, MaxMem=   104857600 cpu:             662.7 elap:              14.4
 (Enter /s/ls4/users/knvvv/bin/g16sse/l508.exe)
 The wavefunction is already stable.
 Leave Link  508 at Sun Apr 18 07:15:18 2021, MaxMem=   104857600 cpu:               2.2 elap:               0.1
 (Enter /s/ls4/users/knvvv/bin/g16sse/l601.exe)
 Copying SCF densities to generalized density rwf, IOpCl= 1 IROHF=0.
 SCF density gives NOpUse=  1 NOpAll= 48.
 Marking SCF density as not fully symmetric.

 **********************************************************************

            Population analysis using the SCF density.

 **********************************************************************

 Orbital symmetries:
 Alpha Orbitals:
       Occupied  (A1G) (?A) (?B)
       Virtual   (?B) (?B) (?B) (?B) (?B) (?A) (?A) (?A) (?A) (?A)
                 (?A) (?B) (?B) (?B) (?A) (?B) (?B) (?B) (?B) (?B)
                 (?B) (?B) (?A) (?A) (?A) (?A) (?A) (?B) (?B) (?B)
                 (?A) (?A) (?A) (?A) (?A) (?A) (?A) (?A) (?A) (?A)
                 (?A) (?A) (?C) (?A) (?A) (?C) (?C) (?C) (?C) (?C)
                 (?C) (A1G) (A1G) (A1G)
 Beta  Orbitals:
       Occupied  (A1G) (?A)
       Virtual   (?B) (?B) (?B) (?B) (?B) (?B) (?A) (?A) (?A) (?A)
                 (?A) (?A) (?B) (?B) (?B) (?A) (?C) (?C) (?C) (?C)
                 (?C) (?C) (?C) (?A) (?A) (?A) (?A) (?A) (?B) (?B)
                 (?B) (?A) (?A) (?A) (?A) (?A) (?A) (?A) (?A) (?A)
                 (?A) (?A) (?D) (?D) (?A) (?A) (?A) (?D) (?D) (?D)
                 (?D) (?D) (?A) (A1G) (A1G)
 Unable to determine electronic state:  an orbital has unidentified symmetry.
 Alpha  occ. eigenvalues --   -7.15280  -0.45502  -0.22636
 Alpha virt. eigenvalues --   -0.05091  -0.05090   0.11114   0.11114   0.12376
 Alpha virt. eigenvalues --    0.15280   0.33025   0.33025   0.33064   0.33344
 Alpha virt. eigenvalues --    0.33344   0.51049   0.52084   0.52084   0.97001
 Alpha virt. eigenvalues --    1.06980   1.06980   1.07233   1.07233   1.07546
 Alpha virt. eigenvalues --    1.07546   1.07672   1.14754   1.14754   1.15324
 Alpha virt. eigenvalues --    1.16906   1.16906   1.82571   1.82572   1.82745
 Alpha virt. eigenvalues --    3.07011   3.07013   3.07612   3.07613   3.07800
 Alpha virt. eigenvalues --    3.07952   3.07955   3.09031   3.09031   3.52861
 Alpha virt. eigenvalues --    3.52862   3.54592   3.54945   3.57169   3.57170
 Alpha virt. eigenvalues --    3.59399   3.59400   3.59785   3.59786   3.59925
 Alpha virt. eigenvalues --    3.59925   4.51336  18.36955  99.75214
  Beta  occ. eigenvalues --   -7.14687  -0.40117
  Beta virt. eigenvalues --   -0.04472  -0.04472  -0.02943   0.10984   0.10984
  Beta virt. eigenvalues --    0.11556   0.12307   0.30431   0.30689   0.30689
  Beta virt. eigenvalues --    0.31671   0.31671   0.51003   0.51003   0.51468
  Beta virt. eigenvalues --    0.95279   1.05026   1.05026   1.05095   1.05495
  Beta virt. eigenvalues --    1.05495   1.06121   1.06121   1.12683   1.12683
  Beta virt. eigenvalues --    1.12922   1.13831   1.13831   1.78482   1.78482
  Beta virt. eigenvalues --    1.81503   3.00653   3.00653   3.00919   3.00919
  Beta virt. eigenvalues --    3.01128   3.01128   3.01724   3.01724   3.01797
  Beta virt. eigenvalues --    3.46760   3.46760   3.52040   3.52040   3.52908
  Beta virt. eigenvalues --    3.52908   3.54843   3.55146   3.55146   3.57458
  Beta virt. eigenvalues --    3.57458   3.58653   4.52658  18.38221  99.75021
          Condensed to atoms (all electrons):
               1
     1  B    5.000000
          Atomic-Atomic Spin Densities.
               1
     1  B    1.000000
 Mulliken charges and spin densities:
               1          2
     1  B   -0.000000   1.000000
 Sum of Mulliken charges =  -0.00000   1.00000
 Mulliken charges and spin densities with hydrogens summed into heavy atoms:
               1          2
     1  B   -0.000000   1.000000
 Electronic spatial extent (au):  <R**2>=             15.7934
 Charge=             -0.0000 electrons
 Dipole moment (field-independent basis, Debye):
    X=             -0.0000    Y=             -0.0000    Z=              0.0000  Tot=              0.0000
 Quadrupole moment (field-independent basis, Debye-Ang):
   XX=             -5.9920   YY=             -7.8012   ZZ=             -7.4494
   XY=             -0.0000   XZ=             -0.0000   YZ=             -1.6238
 Traceless Quadrupole moment (field-independent basis, Debye-Ang):
   XX=              1.0889   YY=             -0.7203   ZZ=             -0.3685
   XY=             -0.0000   XZ=             -0.0000   YZ=             -1.6238
 Octapole moment (field-independent basis, Debye-Ang**2):
  XXX=              0.0000  YYY=             -0.0000  ZZZ=              0.0000  XYY=              0.0000
  XXY=             -0.0000  XXZ=              0.0000  XZZ=              0.0000  YZZ=              0.0000
  YYZ=             -0.0000  XYZ=             -0.0000
 Hexadecapole moment (field-independent basis, Debye-Ang**3):
 XXXX=             -9.2229 YYYY=            -15.4827 ZZZZ=            -14.2690 XXXY=             -0.0000
 XXXZ=             -0.0000 YYYX=             -0.0000 YYYZ=             -2.7990 ZZZX=             -0.0000
 ZZZY=             -2.8030 XXYY=             -4.1213 XXZZ=             -3.9177 YYZZ=             -4.9466
 XXYZ=             -0.9397 YYXZ=             -0.0000 ZZXY=             -0.0000
 N-N= 0.000000000000D+00 E-N=-5.697563113854D+01  KE= 2.457396779965D+01
                          Isotropic Fermi Contact Couplings
        Atom                 a.u.       MegaHertz       Gauss      10(-4) cm-1
     1  B(11)              0.09534     136.75151      48.79634      45.61539
 PrsmSu:  requested number of processors reduced to:  21 ShMem   1 Linda.
 --------------------------------------------------------
       Center         ----  Spin Dipole Couplings  ----
                      3XX-RR        3YY-RR        3ZZ-RR
 --------------------------------------------------------
     1   Atom       -0.338316      0.223808      0.114508
 --------------------------------------------------------
                        XY            XZ            YZ
 --------------------------------------------------------
     1   Atom        0.000000      0.000000      0.504522
 --------------------------------------------------------


 ---------------------------------------------------------------------------------
              Anisotropic Spin Dipole Couplings in Principal Axis System
 ---------------------------------------------------------------------------------

       Atom             a.u.   MegaHertz   Gauss  10(-4) cm-1        Axes

              Baa    -0.3383   -57.925   -20.669   -19.322  1.0000  0.0000  0.0000
     1 B(11)  Bbb    -0.3383   -57.925   -20.669   -19.322  0.0000 -0.6679  0.7442
              Bcc     0.6766   115.849    41.338    38.643 -0.0000  0.7442  0.6679
 

 ---------------------------------------------------------------------------------

 PrsmSu:  requested number of processors reduced to:  21 ShMem   1 Linda.
 No NMR shielding tensors so no spin-rotation constants.
 Leave Link  601 at Sun Apr 18 07:15:28 2021, MaxMem=   104857600 cpu:             460.5 elap:              10.0
 (Enter /s/ls4/users/knvvv/bin/g16sse/l9999.exe)

 Test job not archived.
 1\1\GINC-N178\Stability\UM062X\def2QZVP\B1(2)\KNVVV\18-Apr-2021\0\\#P 
 M062X/Def2QZVP Integral=UltraFineGrid SCF=NoSymm Stable=(RExt, Opt) IO
 p(1/33=1)\\Database calculations.\\0,2\B,0,0.,0.,0.\\Version=ES64L-G16
 RevA.03\HF=-24.6524637\S2=0.75233\S2-1=0.\S2A=0.75\RMSD=1.659e-10\Dipo
 le=0.,0.,0.\Quadrupole=-0.273992,-0.5355494,0.8095414,-1.2072479,0.,0.
 \PG=OH [O(B1)]\\@


 A MAN SHOULD NEVER BE ASHAMED TO OWN HE HAS BEEN IN THE WRONG
 WHICH IS BUT SAYING IN OTHER WORDS,
 THAT HE IS WISER TODAY THAN HE WAS YESTERDAY.

                          -- JONATHAN SWIFT
 Job cpu time:       0 days  0 hours 59 minutes 22.6 seconds.
 Elapsed time:       0 days  0 hours  1 minutes 17.2 seconds.
 File lengths (MBytes):  RWF=      8 Int=      0 D2E=      0 Chk=      2 Scr=      1
 Normal termination of Gaussian 16 at Sun Apr 18 07:15:28 2021.
