 Entering Gaussian System, Link 0=/s/ls4/users/knvvv/bin/g16sse/g16
 Input=data/database/M062X--def2-QZVP--W4-11_n2o.gjf
 Output=data/database/M062X--def2-QZVP--W4-11_n2o.log
 Initial command:
 /s/ls4/users/knvvv/bin/g16sse/l1.exe "/s/ls4/users/knvvv/bin/scratch/Gau-6353.inp" -scrdir="/s/ls4/users/knvvv/bin/scratch/"
 Entering Link 1 = /s/ls4/users/knvvv/bin/g16sse/l1.exe PID=      6354.
  
 Copyright (c) 1988,1990,1992,1993,1995,1998,2003,2009,2016,
            Gaussian, Inc.  All Rights Reserved.
  
 This is part of the Gaussian(R) 16 program.  It is based on
 the Gaussian(R) 09 system (copyright 2009, Gaussian, Inc.),
 the Gaussian(R) 03 system (copyright 2003, Gaussian, Inc.),
 the Gaussian(R) 98 system (copyright 1998, Gaussian, Inc.),
 the Gaussian(R) 94 system (copyright 1995, Gaussian, Inc.),
 the Gaussian 92(TM) system (copyright 1992, Gaussian, Inc.),
 the Gaussian 90(TM) system (copyright 1990, Gaussian, Inc.),
 the Gaussian 88(TM) system (copyright 1988, Gaussian, Inc.),
 the Gaussian 86(TM) system (copyright 1986, Carnegie Mellon
 University), and the Gaussian 82(TM) system (copyright 1983,
 Carnegie Mellon University). Gaussian is a federally registered
 trademark of Gaussian, Inc.
  
 This software contains proprietary and confidential information,
 including trade secrets, belonging to Gaussian, Inc.
  
 This software is provided under written license and may be
 used, copied, transmitted, or stored only in accord with that
 written license.
  
 The following legend is applicable only to US Government
 contracts under FAR:
  
                    RESTRICTED RIGHTS LEGEND
  
 Use, reproduction and disclosure by the US Government is
 subject to restrictions as set forth in subparagraphs (a)
 and (c) of the Commercial Computer Software - Restricted
 Rights clause in FAR 52.227-19.
  
 Gaussian, Inc.
 340 Quinnipiac St., Bldg. 40, Wallingford CT 06492
  
  
 ---------------------------------------------------------------
 Warning -- This program may not be used in any manner that
 competes with the business of Gaussian, Inc. or will provide
 assistance to any competitor of Gaussian, Inc.  The licensee
 of this program is prohibited from giving any competitor of
 Gaussian, Inc. access to this program.  By using this program,
 the user acknowledges that Gaussian, Inc. is engaged in the
 business of creating and licensing software in the field of
 computational chemistry and represents and warrants to the
 licensee that it is not a competitor of Gaussian, Inc. and that
 it will not use this program in any manner prohibited above.
 ---------------------------------------------------------------
  

 Cite this work as:
 Gaussian 16, Revision A.03,
 M. J. Frisch, G. W. Trucks, H. B. Schlegel, G. E. Scuseria, 
 M. A. Robb, J. R. Cheeseman, G. Scalmani, V. Barone, 
 G. A. Petersson, H. Nakatsuji, X. Li, M. Caricato, A. V. Marenich, 
 J. Bloino, B. G. Janesko, R. Gomperts, B. Mennucci, H. P. Hratchian, 
 J. V. Ortiz, A. F. Izmaylov, J. L. Sonnenberg, D. Williams-Young, 
 F. Ding, F. Lipparini, F. Egidi, J. Goings, B. Peng, A. Petrone, 
 T. Henderson, D. Ranasinghe, V. G. Zakrzewski, J. Gao, N. Rega, 
 G. Zheng, W. Liang, M. Hada, M. Ehara, K. Toyota, R. Fukuda, 
 J. Hasegawa, M. Ishida, T. Nakajima, Y. Honda, O. Kitao, H. Nakai, 
 T. Vreven, K. Throssell, J. A. Montgomery, Jr., J. E. Peralta, 
 F. Ogliaro, M. J. Bearpark, J. J. Heyd, E. N. Brothers, K. N. Kudin, 
 V. N. Staroverov, T. A. Keith, R. Kobayashi, J. Normand, 
 K. Raghavachari, A. P. Rendell, J. C. Burant, S. S. Iyengar, 
 J. Tomasi, M. Cossi, J. M. Millam, M. Klene, C. Adamo, R. Cammi, 
 J. W. Ochterski, R. L. Martin, K. Morokuma, O. Farkas, 
 J. B. Foresman, and D. J. Fox, Gaussian, Inc., Wallingford CT, 2016.
 
 ******************************************
 Gaussian 16:  ES64L-G16RevA.03 25-Dec-2016
                18-Apr-2021 
 ******************************************
 %RWF=temp12_99206,70GB
 %nprocshared=48
 Will use up to   48 processors via shared memory.
 Default route: MaxDisk=80GB
 ----------------------------------------------------------------------
 #P M062X/Def2QZVP Integral=UltraFineGrid SCF=NoSymm Stable=(RExt, Opt)
  IOp(1/33=1)
 ----------------------------------------------------------------------
 1/33=1,38=1,172=1/1;
 2/12=2,17=6,18=5,40=1/2;
 3/5=45,7=101,11=2,25=1,30=1,74=-55,75=-5/1,2,3;
 4/9=2/1;
 5/5=2,38=5/2;
 6/7=2,8=2,9=2,10=2,28=1/1;
 8/6=1,10=90,11=11/1;
 9/8=-3,42=1,46=1/14;
 5/5=2,8=3,17=40,38=5/8(-2);
 6/7=2,8=2,9=2,10=2,28=1/1;
 99/5=1,9=1/99;
 Leave Link    1 at Sun Apr 18 05:03:03 2021, MaxMem=           0 cpu:              10.9 elap:               0.3
 (Enter /s/ls4/users/knvvv/bin/g16sse/l101.exe)
 ONIOM data not found on unit 2.
 ----------------------
 Database calculations.
 ----------------------
 TstMul:  ICh=     0
 TstMul:  Mul=     1
 TstMul:  ICh=     0
 TstMul:  Mul=     1
 Symbolic Z-matrix:
 Charge =  0 Multiplicity = 1
 N                     0.        0.        0. 
 N                     0.        0.        1.1291 
 O                     0.        0.        2.3161 
 
 RdStrC is calling ZToCFu for IStruc=1 NZ=     3.
 PrtBox:  NBox=     1 Levels=  1 BoxLen=    8.00 SMaxX=        4.38
          Shift=            0.000000            0.000000            0.000000
 Box      1 Number                   0 centers from      1 to      3:
 After GenITR:
 ITRead=  0  0  0
 MicOpt= -1 -1 -1
 ITRead=  0  0  0
 MicOpt= -1 -1 -1
 NAtoms=      3 NQM=        3 NQMF=       0 NMMI=      0 NMMIF=      0
                NMic=       0 NMicF=      0.
                    Isotopes and Nuclear Properties:
 (Nuclear quadrupole moments (NQMom) in fm**2, nuclear magnetic moments (NMagM)
  in nuclear magnetons)

  Atom         1           2           3
 IAtWgt=          14          14          16
 AtmWgt=  14.0030740  14.0030740  15.9949146
 NucSpn=           2           2           0
 AtZEff=  -0.0000000  -0.0000000  -0.0000000
 NQMom=    2.0440000   2.0440000   0.0000000
 NMagM=    0.4037610   0.4037610   0.0000000
 AtZNuc=   7.0000000   7.0000000   8.0000000
 No MM parameters found.
 Leave Link  101 at Sun Apr 18 05:03:03 2021, MaxMem=   104857600 cpu:               8.1 elap:               0.2
 (Enter /s/ls4/users/knvvv/bin/g16sse/l202.exe)
                          Input orientation:                          
 ---------------------------------------------------------------------
 Center     Atomic      Atomic             Coordinates (Angstroms)
 Number     Number       Type             X           Y           Z
 ---------------------------------------------------------------------
      1          7           0        0.000000    0.000000    0.000000
      2          7           0        0.000000    0.000000    1.129100
      3          8           0        0.000000    0.000000    2.316100
 ---------------------------------------------------------------------
                    Distance matrix (angstroms):
                    1          2          3
     1  N    0.000000
     2  N    1.129100   0.000000
     3  O    2.316100   1.187000   0.000000
 Stoichiometry    N2O
 Framework group  C*V[C*(NNO)]
 Deg. of freedom     2
 Full point group                 C*V     NOp   4
 Largest Abelian subgroup         C2V     NOp   4
 Largest concise Abelian subgroup C1      NOp   1
                         Standard orientation:                         
 ---------------------------------------------------------------------
 Center     Atomic      Atomic             Coordinates (Angstroms)
 Number     Number       Type             X           Y           Z
 ---------------------------------------------------------------------
      1          7           0        0.000000    0.000000   -1.201477
      2          7           0        0.000000    0.000000   -0.072377
      3          8           0        0.000000    0.000000    1.114623
 ---------------------------------------------------------------------
 Rotational constants (GHZ):           0.0000000          12.5843642          12.5843642
 Leave Link  202 at Sun Apr 18 05:03:03 2021, MaxMem=   104857600 cpu:               4.1 elap:               0.1
 (Enter /s/ls4/users/knvvv/bin/g16sse/l301.exe)
 Standard basis: def2QZVP (5D, 7F)
 Ernie: Thresh=  0.10000D-02 Tol=  0.10000D-05 Strict=F.
 There are    96 symmetry adapted cartesian basis functions of A1  symmetry.
 There are    24 symmetry adapted cartesian basis functions of A2  symmetry.
 There are    48 symmetry adapted cartesian basis functions of B1  symmetry.
 There are    48 symmetry adapted cartesian basis functions of B2  symmetry.
 There are    72 symmetry adapted basis functions of A1  symmetry.
 There are    21 symmetry adapted basis functions of A2  symmetry.
 There are    39 symmetry adapted basis functions of B1  symmetry.
 There are    39 symmetry adapted basis functions of B2  symmetry.
   171 basis functions,   276 primitive gaussians,   216 cartesian basis functions
    11 alpha electrons       11 beta electrons
       nuclear repulsion energy        60.7250594547 Hartrees.
 IExCor= 4336 DFT=T Ex+Corr=M062X ExCW=0 ScaHFX=  0.540000
 ScaDFX=  1.000000  1.000000  1.000000  1.000000 ScalE2=  1.000000  1.000000
 IRadAn=      5 IRanWt=     -1 IRanGd=            0 ICorTp=0 IEmpDi=  4
 NAtoms=    3 NActive=    3 NUniq=    3 SFac= 1.00D+00 NAtFMM=   60 NAOKFM=F Big=F
 Integral buffers will be    131072 words long.
 Raffenetti 2 integral format.
 Two-electron integral symmetry is turned on.
 Leave Link  301 at Sun Apr 18 05:03:03 2021, MaxMem=   104857600 cpu:               6.4 elap:               0.2
 (Enter /s/ls4/users/knvvv/bin/g16sse/l302.exe)
 NPDir=0 NMtPBC=     1 NCelOv=     1 NCel=       1 NClECP=     1 NCelD=      1
         NCelK=      1 NCelE2=     1 NClLst=     1 CellRange=     0.0.
 One-electron integrals computed using PRISM.
 One-electron integral symmetry used in STVInt
 PrsmSu:  requested number of processors reduced to:   4 ShMem   1 Linda.
 PrsmSu:  requested number of processors reduced to:  21 ShMem   1 Linda.
   4 Symmetry operations used in ECPInt.
 ECPInt:  NShTT=    1326 NPrTT=    3945 LenC2=    1316 LenP2D=    3404.
 LDataN:  DoStor=T MaxTD1= 8 Len=  415
 Number of processors reduced to  34 by ecpmxn.
 NBasis=   171 RedAO= T EigKep=  1.11D-04  NBF=    72    21    39    39
 NBsUse=   171 1.00D-06 EigRej= -1.00D+00 NBFU=    72    21    39    39
 Precomputing XC quadrature grid using
 IXCGrd= 4 IRadAn=           5 IRanWt=          -1 IRanGd=           0 AccXCQ= 0.00D+00.
 Generated NRdTot=       0 NPtTot=           0 NUsed=           0 NTot=          32
 NSgBfM=   216   216   216   216   216 MxSgAt=     3 MxSgA2=     3.
 Leave Link  302 at Sun Apr 18 05:03:04 2021, MaxMem=   104857600 cpu:              20.3 elap:               0.5
 (Enter /s/ls4/users/knvvv/bin/g16sse/l303.exe)
 DipDrv:  MaxL=1.
 Leave Link  303 at Sun Apr 18 05:03:05 2021, MaxMem=   104857600 cpu:              60.4 elap:               1.3
 (Enter /s/ls4/users/knvvv/bin/g16sse/l401.exe)
 SCF N**3 symmetry information disabled.
 ExpMin= 1.07D-01 ExpMax= 1.17D+05 ExpMxC= 1.13D+03 IAcc=3 IRadAn=         5 AccDes= 0.00D+00
 Harris functional with IExCor= 1009 and IRadAn=       5 diagonalized for initial guess.
 HarFok:  IExCor= 1009 AccDes= 0.00D+00 IRadAn=         5 IDoV= 1 UseB2=F ITyADJ=14
 ICtDFT=  3500011 ScaDFX=  1.000000  1.000000  1.000000  1.000000
 FoFCou: FMM=F IPFlag=           0 FMFlag=      100000 FMFlg1=           0
         NFxFlg=           0 DoJE=T BraDBF=F KetDBF=T FulRan=T
         wScrn=  0.000000 ICntrl=       500 IOpCl=  0 I1Cent=   200000004 NGrid=           0
         NMat0=    1 NMatS0=      1 NMatT0=    0 NMatD0=    1 NMtDS0=    0 NMtDT0=    0
 Petite list used in FoFCou.
 CoulSu:  requested number of processors reduced to:  21 ShMem   1 Linda.
 CoulSu:  requested number of processors reduced to:  21 ShMem   1 Linda.
 CoulSu:  requested number of processors reduced to:  21 ShMem   1 Linda.
 CoulSu:  requested number of processors reduced to:  21 ShMem   1 Linda.
 Harris En= -184.582208421739    
 JPrj=0 DoOrth=F DoCkMO=F.
 Initial guess orbital symmetries:
       Occupied  (SG) (SG) (SG) (SG) (SG) (SG) (PI) (PI) (SG) (PI)
                 (PI)
       Virtual   (PI) (PI) (SG) (SG) (PI) (PI) (SG) (SG) (PI) (PI)
                 (SG) (PI) (PI) (DLTA) (DLTA) (SG) (SG) (SG) (DLTA)
                 (DLTA) (PI) (PI) (PI) (PI) (SG) (PI) (PI) (SG)
                 (DLTA) (DLTA) (SG) (PI) (PI) (PI) (PI) (SG) (SG)
                 (PI) (PI) (SG) (PHI) (PHI) (DLTA) (DLTA) (SG)
                 (DLTA) (DLTA) (PI) (PI) (PHI) (PHI) (DLTA) (DLTA)
                 (PI) (PI) (SG) (SG) (PHI) (PHI) (DLTA) (DLTA)
                 (SG) (PI) (PI) (SG) (PI) (PI) (DLTA) (DLTA) (SG)
                 (PI) (PI) (SG) (DLTA) (DLTA) (PI) (PI) (SG) (PI)
                 (PI) (SG) (PI) (PI) (SG) (PI) (PI) (PHI) (PHI)
                 (?A) (?A) (SG) (DLTA) (DLTA) (?A) (?A) (PI) (PI)
                 (SG) (PHI) (PHI) (SG) (PI) (PI) (DLTA) (DLTA)
                 (PHI) (PHI) (DLTA) (DLTA) (PHI) (PHI) (SG) (SG)
                 (PI) (PI) (?A) (?A) (DLTA) (DLTA) (DLTA) (DLTA)
                 (PHI) (PHI) (DLTA) (DLTA) (PI) (PI) (SG) (PI)
                 (PI) (SG) (SG) (DLTA) (DLTA) (PHI) (PHI) (PI)
                 (PI) (SG) (DLTA) (DLTA) (SG) (PI) (PI) (DLTA)
                 (DLTA) (PI) (PI) (SG) (SG) (PI) (PI) (SG) (SG)
                 (SG) (SG) (SG) (SG) (SG) (SG)
 The electronic state of the initial guess is 1-SG.
 Leave Link  401 at Sun Apr 18 05:03:09 2021, MaxMem=   104857600 cpu:             168.7 elap:               3.8
 (Enter /s/ls4/users/knvvv/bin/g16sse/l502.exe)
 Integral symmetry usage will be decided dynamically.
 Closed shell SCF:
 Using DIIS extrapolation, IDIIS=  1040.
 NGot=   104857600 LenX=   104750835 LenY=   104703738
 Requested convergence on RMS density matrix=1.00D-08 within 128 cycles.
 Requested convergence on MAX density matrix=1.00D-06.
 Requested convergence on             energy=1.00D-06.
 No special actions if energy rises.
 Fock matrices will be formed incrementally for  20 cycles.
 Integral accuracy reduced to 1.0D-05 until final iterations.

 Cycle   1  Pass 0  IDiag  1:
 FoFJK:  IHMeth= 1 ICntrl=       0 DoSepK=F KAlg= 0 I1Cent=           0 FoldK=F
 IRaf= 980000000 NMat=       1 IRICut=       1 DoRegI=T DoRafI=F ISym2E= 1 IDoP0=0 IntGTp=1.
 FoFCou: FMM=F IPFlag=           0 FMFlag=      100000 FMFlg1=           0
         NFxFlg=           0 DoJE=F BraDBF=F KetDBF=F FulRan=T
         wScrn=  0.000000 ICntrl=         0 IOpCl=  0 I1Cent=           0 NGrid=           0
         NMat0=    1 NMatS0=      1 NMatT0=    0 NMatD0=    1 NMtDS0=    0 NMtDT0=    0
 Petite list used in FoFCou.
 CoulSu:  requested number of processors reduced to:  21 ShMem   1 Linda.
 E= -184.612654072467    
 DIIS: error= 4.03D-02 at cycle   1 NSaved=   1.
 NSaved= 1 IEnMin= 1 EnMin= -184.612654072467     IErMin= 1 ErrMin= 4.03D-02
 ErrMax= 4.03D-02  0.00D+00 EMaxC= 1.00D-01 BMatC= 1.88D-01 BMatP= 1.88D-01
 IDIUse=3 WtCom= 5.97D-01 WtEn= 4.03D-01
 Coeff-Com:  0.100D+01
 Coeff-En:   0.100D+01
 Coeff:      0.100D+01
 Gap=     0.389 Goal=   None    Shift=    0.000
 GapD=    0.389 DampG=1.000 DampE=0.500 DampFc=0.5000 IDamp=-1.
 Damping current iteration by 5.00D-01
 RMSDP=1.45D-03 MaxDP=4.52D-02              OVMax= 1.45D-01

 Cycle   2  Pass 0  IDiag  1:
 RMSU=  7.25D-04    CP:  1.01D+00
 CoulSu:  requested number of processors reduced to:  21 ShMem   1 Linda.
 E= -184.637341469858     Delta-E=       -0.024687397391 Rises=F Damp=T
 DIIS: error= 1.93D-02 at cycle   2 NSaved=   2.
 NSaved= 2 IEnMin= 2 EnMin= -184.637341469858     IErMin= 2 ErrMin= 1.93D-02
 ErrMax= 1.93D-02  0.00D+00 EMaxC= 1.00D-01 BMatC= 3.23D-02 BMatP= 1.88D-01
 IDIUse=3 WtCom= 8.07D-01 WtEn= 1.93D-01
 Coeff-Com: -0.137D-01 0.101D+01
 Coeff-En:   0.250D+00 0.750D+00
 Coeff:      0.372D-01 0.963D+00
 Gap=     0.440 Goal=   None    Shift=    0.000
 RMSDP=5.18D-04 MaxDP=1.80D-02 DE=-2.47D-02 OVMax= 1.09D-01

 Cycle   3  Pass 0  IDiag  1:
 RMSU=  4.64D-04    CP:  9.99D-01  6.95D-01
 CoulSu:  requested number of processors reduced to:  21 ShMem   1 Linda.
 E= -184.672786181779     Delta-E=       -0.035444711920 Rises=F Damp=F
 DIIS: error= 1.25D-02 at cycle   3 NSaved=   3.
 NSaved= 3 IEnMin= 3 EnMin= -184.672786181779     IErMin= 3 ErrMin= 1.25D-02
 ErrMax= 1.25D-02  0.00D+00 EMaxC= 1.00D-01 BMatC= 1.09D-02 BMatP= 3.23D-02
 IDIUse=3 WtCom= 8.75D-01 WtEn= 1.25D-01
 Coeff-Com: -0.147D+00 0.400D+00 0.748D+00
 Coeff-En:   0.000D+00 0.000D+00 0.100D+01
 Coeff:     -0.129D+00 0.350D+00 0.779D+00
 Gap=     0.447 Goal=   None    Shift=    0.000
 RMSDP=3.79D-04 MaxDP=8.02D-03 DE=-3.54D-02 OVMax= 4.84D-02

 Cycle   4  Pass 0  IDiag  1:
 RMSU=  2.90D-04    CP:  1.00D+00  9.35D-01  6.34D-01
 CoulSu:  requested number of processors reduced to:  21 ShMem   1 Linda.
 E= -184.675059405478     Delta-E=       -0.002273223699 Rises=F Damp=F
 DIIS: error= 1.14D-02 at cycle   4 NSaved=   4.
 NSaved= 4 IEnMin= 4 EnMin= -184.675059405478     IErMin= 4 ErrMin= 1.14D-02
 ErrMax= 1.14D-02  0.00D+00 EMaxC= 1.00D-01 BMatC= 7.36D-03 BMatP= 1.09D-02
 IDIUse=3 WtCom= 8.86D-01 WtEn= 1.14D-01
 Coeff-Com: -0.901D-01 0.199D+00 0.539D+00 0.352D+00
 Coeff-En:   0.000D+00 0.000D+00 0.427D+00 0.573D+00
 Coeff:     -0.798D-01 0.177D+00 0.526D+00 0.377D+00
 Gap=     0.440 Goal=   None    Shift=    0.000
 RMSDP=2.05D-04 MaxDP=4.56D-03 DE=-2.27D-03 OVMax= 2.71D-02

 Cycle   5  Pass 0  IDiag  1:
 RMSU=  7.06D-05    CP:  1.00D+00  8.87D-01  8.13D-01  4.12D-01
 CoulSu:  requested number of processors reduced to:  21 ShMem   1 Linda.
 E= -184.680497982963     Delta-E=       -0.005438577485 Rises=F Damp=F
 DIIS: error= 1.37D-03 at cycle   5 NSaved=   5.
 NSaved= 5 IEnMin= 5 EnMin= -184.680497982963     IErMin= 5 ErrMin= 1.37D-03
 ErrMax= 1.37D-03  0.00D+00 EMaxC= 1.00D-01 BMatC= 9.14D-05 BMatP= 7.36D-03
 IDIUse=3 WtCom= 9.86D-01 WtEn= 1.37D-02
 Coeff-Com: -0.144D-01 0.297D-01 0.138D+00 0.152D+00 0.695D+00
 Coeff-En:   0.000D+00 0.000D+00 0.000D+00 0.000D+00 0.100D+01
 Coeff:     -0.142D-01 0.293D-01 0.136D+00 0.150D+00 0.699D+00
 Gap=     0.442 Goal=   None    Shift=    0.000
 RMSDP=2.49D-05 MaxDP=5.86D-04 DE=-5.44D-03 OVMax= 2.81D-03

 Cycle   6  Pass 0  IDiag  1:
 RMSU=  1.18D-05    CP:  1.00D+00  8.81D-01  8.13D-01  4.70D-01  8.20D-01
 CoulSu:  requested number of processors reduced to:  21 ShMem   1 Linda.
 E= -184.680565493359     Delta-E=       -0.000067510396 Rises=F Damp=F
 DIIS: error= 1.93D-04 at cycle   6 NSaved=   6.
 NSaved= 6 IEnMin= 6 EnMin= -184.680565493359     IErMin= 6 ErrMin= 1.93D-04
 ErrMax= 1.93D-04  0.00D+00 EMaxC= 1.00D-01 BMatC= 2.18D-06 BMatP= 9.14D-05
 IDIUse=3 WtCom= 9.98D-01 WtEn= 1.93D-03
 Coeff-Com:  0.240D-02-0.566D-02-0.146D-01-0.116D-01 0.105D+00 0.925D+00
 Coeff-En:   0.000D+00 0.000D+00 0.000D+00 0.000D+00 0.000D+00 0.100D+01
 Coeff:      0.239D-02-0.565D-02-0.146D-01-0.115D-01 0.105D+00 0.925D+00
 Gap=     0.442 Goal=   None    Shift=    0.000
 RMSDP=6.05D-06 MaxDP=3.18D-04 DE=-6.75D-05 OVMax= 3.83D-04

 Initial convergence to 1.0D-05 achieved.  Increase integral accuracy.
 Cycle   7  Pass 1  IDiag  1:
 CoulSu:  requested number of processors reduced to:  21 ShMem   1 Linda.
 E= -184.680568547492     Delta-E=       -0.000003054133 Rises=F Damp=F
 DIIS: error= 3.34D-05 at cycle   1 NSaved=   1.
 NSaved= 1 IEnMin= 1 EnMin= -184.680568547492     IErMin= 1 ErrMin= 3.34D-05
 ErrMax= 3.34D-05  0.00D+00 EMaxC= 1.00D-01 BMatC= 1.16D-07 BMatP= 1.16D-07
 IDIUse=1 WtCom= 1.00D+00 WtEn= 0.00D+00
 Coeff-Com:  0.100D+01
 Coeff:      0.100D+01
 Gap=     0.442 Goal=   None    Shift=    0.000
 RMSDP=6.05D-06 MaxDP=3.18D-04 DE=-3.05D-06 OVMax= 6.75D-05

 Cycle   8  Pass 1  IDiag  1:
 RMSU=  7.15D-06    CP:  1.00D+00
 CoulSu:  requested number of processors reduced to:  21 ShMem   1 Linda.
 E= -184.680568570535     Delta-E=       -0.000000023043 Rises=F Damp=F
 DIIS: error= 2.38D-05 at cycle   2 NSaved=   2.
 NSaved= 2 IEnMin= 2 EnMin= -184.680568570535     IErMin= 2 ErrMin= 2.38D-05
 ErrMax= 2.38D-05  0.00D+00 EMaxC= 1.00D-01 BMatC= 3.24D-08 BMatP= 1.16D-07
 IDIUse=1 WtCom= 1.00D+00 WtEn= 0.00D+00
 Coeff-Com:  0.286D+00 0.714D+00
 Coeff:      0.286D+00 0.714D+00
 Gap=     0.442 Goal=   None    Shift=    0.000
 RMSDP=7.96D-07 MaxDP=2.27D-05 DE=-2.30D-08 OVMax= 1.14D-04

 Cycle   9  Pass 1  IDiag  1:
 RMSU=  7.92D-07    CP:  1.00D+00  9.94D-01
 CoulSu:  requested number of processors reduced to:  21 ShMem   1 Linda.
 E= -184.680568563967     Delta-E=        0.000000006568 Rises=F Damp=F
 DIIS: error= 2.73D-05 at cycle   3 NSaved=   3.
 NSaved= 3 IEnMin= 2 EnMin= -184.680568570535     IErMin= 2 ErrMin= 2.38D-05
 ErrMax= 2.73D-05  0.00D+00 EMaxC= 1.00D-01 BMatC= 4.21D-08 BMatP= 3.24D-08
 IDIUse=1 WtCom= 1.00D+00 WtEn= 0.00D+00
 Coeff-Com:  0.370D-01 0.527D+00 0.436D+00
 Coeff:      0.370D-01 0.527D+00 0.436D+00
 Gap=     0.442 Goal=   None    Shift=    0.000
 RMSDP=5.13D-07 MaxDP=9.33D-06 DE= 6.57D-09 OVMax= 6.11D-05

 Cycle  10  Pass 1  IDiag  1:
 RMSU=  2.38D-07    CP:  1.00D+00  1.02D+00  4.63D-01
 CoulSu:  requested number of processors reduced to:  21 ShMem   1 Linda.
 E= -184.680568594438     Delta-E=       -0.000000030472 Rises=F Damp=F
 DIIS: error= 2.71D-06 at cycle   4 NSaved=   4.
 NSaved= 4 IEnMin= 4 EnMin= -184.680568594438     IErMin= 4 ErrMin= 2.71D-06
 ErrMax= 2.71D-06  0.00D+00 EMaxC= 1.00D-01 BMatC= 6.84D-10 BMatP= 3.24D-08
 IDIUse=1 WtCom= 1.00D+00 WtEn= 0.00D+00
 Coeff-Com: -0.125D-01 0.155D+00 0.169D+00 0.688D+00
 Coeff:     -0.125D-01 0.155D+00 0.169D+00 0.688D+00
 Gap=     0.442 Goal=   None    Shift=    0.000
 RMSDP=9.80D-08 MaxDP=4.07D-06 DE=-3.05D-08 OVMax= 1.00D-05

 Cycle  11  Pass 1  IDiag  1:
 RMSU=  8.22D-08    CP:  1.00D+00  1.02D+00  5.04D-01  8.57D-01
 CoulSu:  requested number of processors reduced to:  21 ShMem   1 Linda.
 E= -184.680568594945     Delta-E=       -0.000000000507 Rises=F Damp=F
 DIIS: error= 1.40D-06 at cycle   5 NSaved=   5.
 NSaved= 5 IEnMin= 5 EnMin= -184.680568594945     IErMin= 5 ErrMin= 1.40D-06
 ErrMax= 1.40D-06  0.00D+00 EMaxC= 1.00D-01 BMatC= 1.35D-10 BMatP= 6.84D-10
 IDIUse=1 WtCom= 1.00D+00 WtEn= 0.00D+00
 Coeff-Com: -0.783D-02 0.231D-01 0.190D-01 0.300D+00 0.666D+00
 Coeff:     -0.783D-02 0.231D-01 0.190D-01 0.300D+00 0.666D+00
 Gap=     0.442 Goal=   None    Shift=    0.000
 RMSDP=3.20D-08 MaxDP=8.77D-07 DE=-5.07D-10 OVMax= 3.61D-06

 Cycle  12  Pass 1  IDiag  1:
 RMSU=  2.47D-08    CP:  1.00D+00  1.02D+00  5.00D-01  9.40D-01  1.03D+00
 CoulSu:  requested number of processors reduced to:  21 ShMem   1 Linda.
 E= -184.680568595036     Delta-E=       -0.000000000090 Rises=F Damp=F
 DIIS: error= 7.04D-07 at cycle   6 NSaved=   6.
 NSaved= 6 IEnMin= 6 EnMin= -184.680568595036     IErMin= 6 ErrMin= 7.04D-07
 ErrMax= 7.04D-07  0.00D+00 EMaxC= 1.00D-01 BMatC= 2.73D-11 BMatP= 1.35D-10
 IDIUse=1 WtCom= 1.00D+00 WtEn= 0.00D+00
 Coeff-Com: -0.266D-03-0.322D-01-0.489D-01-0.540D-01 0.317D+00 0.818D+00
 Coeff:     -0.266D-03-0.322D-01-0.489D-01-0.540D-01 0.317D+00 0.818D+00
 Gap=     0.442 Goal=   None    Shift=    0.000
 RMSDP=2.14D-08 MaxDP=5.62D-07 DE=-9.05D-11 OVMax= 1.88D-06

 Cycle  13  Pass 1  IDiag  1:
 RMSU=  7.97D-09    CP:  1.00D+00  1.02D+00  4.95D-01  9.92D-01  1.19D+00
                    CP:  8.39D-01
 CoulSu:  requested number of processors reduced to:  21 ShMem   1 Linda.
 E= -184.680568595059     Delta-E=       -0.000000000023 Rises=F Damp=F
 DIIS: error= 5.55D-08 at cycle   7 NSaved=   7.
 NSaved= 7 IEnMin= 7 EnMin= -184.680568595059     IErMin= 7 ErrMin= 5.55D-08
 ErrMax= 5.55D-08  0.00D+00 EMaxC= 1.00D-01 BMatC= 1.94D-13 BMatP= 2.73D-11
 IDIUse=1 WtCom= 1.00D+00 WtEn= 0.00D+00
 Coeff-Com:  0.239D-03-0.733D-02-0.113D-01-0.213D-01 0.428D-01 0.179D+00
 Coeff-Com:  0.818D+00
 Coeff:      0.239D-03-0.733D-02-0.113D-01-0.213D-01 0.428D-01 0.179D+00
 Coeff:      0.818D+00
 Gap=     0.442 Goal=   None    Shift=    0.000
 RMSDP=2.44D-09 MaxDP=7.73D-08 DE=-2.26D-11 OVMax= 1.11D-07

 SCF Done:  E(RM062X) =  -184.680568595     A.U. after   13 cycles
            NFock= 13  Conv=0.24D-08     -V/T= 2.0039
 KE= 1.839720891301D+02 PE=-5.547327602726D+02 EE= 1.253550430928D+02
 Leave Link  502 at Sun Apr 18 05:03:39 2021, MaxMem=   104857600 cpu:            1217.4 elap:              30.5
 (Enter /s/ls4/users/knvvv/bin/g16sse/l601.exe)
 Copying SCF densities to generalized density rwf, IOpCl= 0 IROHF=0.

 **********************************************************************

            Population analysis using the SCF density.

 **********************************************************************

 Orbital symmetries:
       Occupied  (SG) (SG) (SG) (SG) (SG) (SG) (PI) (PI) (SG) (PI)
                 (PI)
       Virtual   (PI) (PI) (SG) (SG) (PI) (PI) (SG) (PI) (PI) (SG)
                 (SG) (PI) (PI) (DLTA) (DLTA) (SG) (SG) (SG) (DLTA)
                 (DLTA) (PI) (PI) (PI) (PI) (SG) (PI) (PI) (SG)
                 (DLTA) (DLTA) (SG) (PI) (PI) (PI) (PI) (SG) (SG)
                 (PI) (PI) (SG) (PHI) (PHI) (DLTA) (DLTA) (SG)
                 (DLTA) (DLTA) (PHI) (PHI) (PI) (PI) (DLTA) (DLTA)
                 (PI) (PI) (SG) (SG) (PHI) (PHI) (DLTA) (DLTA)
                 (SG) (PI) (PI) (SG) (PI) (PI) (SG) (DLTA) (DLTA)
                 (PI) (PI) (SG) (DLTA) (DLTA) (PI) (PI) (SG) (SG)
                 (PI) (PI) (PI) (PI) (SG) (PHI) (PHI) (PI) (PI)
                 (?A) (?A) (SG) (DLTA) (DLTA) (?A) (?A) (PI) (PI)
                 (SG) (PHI) (PHI) (PI) (PI) (SG) (DLTA) (DLTA)
                 (PHI) (PHI) (PHI) (PHI) (DLTA) (DLTA) (SG) (SG)
                 (PI) (PI) (DLTA) (DLTA) (?A) (?A) (DLTA) (DLTA)
                 (PHI) (PHI) (DLTA) (DLTA) (PI) (PI) (SG) (PI)
                 (PI) (SG) (SG) (DLTA) (DLTA) (PHI) (PHI) (PI)
                 (PI) (SG) (DLTA) (DLTA) (SG) (PI) (PI) (DLTA)
                 (DLTA) (PI) (PI) (SG) (SG) (PI) (PI) (SG) (SG)
                 (SG) (SG) (SG) (SG) (SG) (SG)
 The electronic state is 1-SG.
 Alpha  occ. eigenvalues --  -19.72843 -14.99709 -14.86446  -1.37489  -1.20325
 Alpha  occ. eigenvalues --   -0.70126  -0.65640  -0.65640  -0.57009  -0.41506
 Alpha  occ. eigenvalues --   -0.41506
 Alpha virt. eigenvalues --    0.02684   0.02684   0.10567   0.17088   0.20048
 Alpha virt. eigenvalues --    0.20048   0.24120   0.29580   0.29580   0.31917
 Alpha virt. eigenvalues --    0.36034   0.40104   0.40104   0.59615   0.59615
 Alpha virt. eigenvalues --    0.60293   0.76018   0.80878   0.87854   0.87854
 Alpha virt. eigenvalues --    0.93926   0.93926   1.03545   1.03545   1.06684
 Alpha virt. eigenvalues --    1.16131   1.16131   1.22374   1.25081   1.25081
 Alpha virt. eigenvalues --    1.33732   1.36483   1.36483   1.47196   1.47196
 Alpha virt. eigenvalues --    1.48463   1.58301   1.94658   1.94658   2.15575
 Alpha virt. eigenvalues --    2.16575   2.16575   2.32446   2.32446   2.49754
 Alpha virt. eigenvalues --    2.57145   2.57145   2.59742   2.59742   2.61328
 Alpha virt. eigenvalues --    2.61328   2.83369   2.83370   2.84890   2.84890
 Alpha virt. eigenvalues --    2.89658   2.92214   3.18512   3.18512   3.20373
 Alpha virt. eigenvalues --    3.20373   3.25116   3.32125   3.32125   3.58191
 Alpha virt. eigenvalues --    3.59094   3.59094   3.75242   3.84127   3.84127
 Alpha virt. eigenvalues --    3.85785   3.85785   3.94524   4.10451   4.10451
 Alpha virt. eigenvalues --    4.25956   4.25956   4.39708   4.77403   4.78761
 Alpha virt. eigenvalues --    4.78761   5.00559   5.00559   5.52224   6.15389
 Alpha virt. eigenvalues --    6.15389   6.16078   6.16078   6.46663   6.46664
 Alpha virt. eigenvalues --    6.64917   6.67614   6.67614   6.81559   6.81560
 Alpha virt. eigenvalues --    7.11670   7.11670   7.17400   7.46705   7.46705
 Alpha virt. eigenvalues --    7.52091   7.52091   7.66679   7.88101   7.88102
 Alpha virt. eigenvalues --    8.12780   8.12780   8.31416   8.31416   8.31446
 Alpha virt. eigenvalues --    8.31446   8.35556   8.48496   8.56567   8.56567
 Alpha virt. eigenvalues --    8.66418   8.66419   8.73866   8.73868   8.82349
 Alpha virt. eigenvalues --    8.82350   8.98459   8.98459   9.15874   9.15876
 Alpha virt. eigenvalues --    9.17436   9.17436   9.42055   9.79808   9.79808
 Alpha virt. eigenvalues --    9.89241  10.27827  10.53142  10.53143  10.77029
 Alpha virt. eigenvalues --   10.77029  10.94245  10.94245  11.04357  11.06909
 Alpha virt. eigenvalues --   11.06909  11.22948  11.40909  11.40909  11.89324
 Alpha virt. eigenvalues --   11.89326  12.44935  12.44935  12.60845  13.82637
 Alpha virt. eigenvalues --   14.16952  14.16952  14.68483  15.89007  37.01079
 Alpha virt. eigenvalues --   38.94883  47.90485 194.45530 196.54982 250.91135
          Condensed to atoms (all electrons):
               1          2          3
     1  N    6.644507   0.513447  -0.096794
     2  N    0.513447   5.627815   0.572999
     3  O   -0.096794   0.572999   7.748373
 Mulliken charges:
               1
     1  N   -0.061161
     2  N    0.285739
     3  O   -0.224578
 Sum of Mulliken charges =  -0.00000
 Mulliken charges with hydrogens summed into heavy atoms:
               1
     1  N   -0.061161
     2  N    0.285739
     3  O   -0.224578
 Electronic spatial extent (au):  <R**2>=            108.7123
 Charge=             -0.0000 electrons
 Dipole moment (field-independent basis, Debye):
    X=              0.0000    Y=             -0.0000    Z=             -0.2740  Tot=              0.2740
 Quadrupole moment (field-independent basis, Debye-Ang):
   XX=            -15.3470   YY=            -15.3470   ZZ=            -19.0767
   XY=              0.0000   XZ=              0.0000   YZ=             -0.0000
 Traceless Quadrupole moment (field-independent basis, Debye-Ang):
   XX=              1.2432   YY=              1.2432   ZZ=             -2.4865
   XY=              0.0000   XZ=              0.0000   YZ=             -0.0000
 Octapole moment (field-independent basis, Debye-Ang**2):
  XXX=              0.0000  YYY=             -0.0000  ZZZ=              4.6739  XYY=              0.0000
  XXY=             -0.0000  XXZ=              0.9491  XZZ=              0.0000  YZZ=             -0.0000
  YYZ=              0.9491  XYZ=              0.0000
 Hexadecapole moment (field-independent basis, Debye-Ang**3):
 XXXX=            -12.3767 YYYY=            -12.3767 ZZZZ=           -106.3780 XXXY=              0.0000
 XXXZ=              0.0000 YYYX=              0.0000 YYYZ=             -0.0000 ZZZX=              0.0000
 ZZZY=             -0.0000 XXYY=             -4.1256 XXZZ=            -19.5187 YYZZ=            -19.5187
 XXYZ=             -0.0000 YYXZ=              0.0000 ZZXY=             -0.0000
 N-N= 6.072505945467D+01 E-N=-5.547327578982D+02  KE= 1.839720891301D+02
 PrsmSu:  requested number of processors reduced to:  21 ShMem   1 Linda.
 No NMR shielding tensors so no spin-rotation constants.
 Leave Link  601 at Sun Apr 18 05:03:44 2021, MaxMem=   104857600 cpu:             186.3 elap:               4.1
 (Enter /s/ls4/users/knvvv/bin/g16sse/l801.exe)
 DoSCS=F DFT=T ScalE2(SS,OS)=  1.000000  1.000000
 Range of M.O.s used for correlation:     1   171
 NBasis=   171 NAE=    11 NBE=    11 NFC=     0 NFV=     0
 NROrb=    171 NOA=    11 NOB=    11 NVA=   160 NVB=   160

 **** Warning!!: The largest alpha MO coefficient is  0.23505641D+02

 Leave Link  801 at Sun Apr 18 05:03:44 2021, MaxMem=   104857600 cpu:               3.8 elap:               0.1
 (Enter /s/ls4/users/knvvv/bin/g16sse/l914.exe)
 RHF ground state
 Doing stability rather than CIS.
 Two-electron integrals replicated using symmetry.
 MDV=   104857600 DFT=T DoStab=T Mixed=T DoRPA=F DoScal=F NonHer=F
 Making orbital integer symmetry assigments:
 Orbital symmetries:
       Occupied  (SG) (SG) (SG) (SG) (SG) (SG) (PI) (PI) (SG) (PI)
                 (PI)
       Virtual   (PI) (PI) (SG) (SG) (PI) (PI) (SG) (PI) (PI) (SG)
                 (SG) (PI) (PI) (DLTA) (DLTA) (SG) (SG) (SG) (DLTA)
                 (DLTA) (PI) (PI) (PI) (PI) (SG) (PI) (PI) (SG)
                 (DLTA) (DLTA) (SG) (PI) (PI) (PI) (PI) (SG) (SG)
                 (PI) (PI) (SG) (PHI) (PHI) (DLTA) (DLTA) (SG)
                 (DLTA) (DLTA) (PHI) (PHI) (PI) (PI) (DLTA) (DLTA)
                 (PI) (PI) (SG) (SG) (PHI) (PHI) (DLTA) (DLTA)
                 (SG) (PI) (PI) (SG) (PI) (PI) (SG) (DLTA) (DLTA)
                 (PI) (PI) (SG) (DLTA) (DLTA) (PI) (PI) (SG) (SG)
                 (PI) (PI) (PI) (PI) (SG) (PHI) (PHI) (PI) (PI)
                 (?A) (?A) (SG) (DLTA) (DLTA) (?A) (?A) (PI) (PI)
                 (SG) (PHI) (PHI) (PI) (PI) (SG) (DLTA) (DLTA)
                 (PHI) (PHI) (PHI) (PHI) (DLTA) (DLTA) (SG) (SG)
                 (PI) (PI) (DLTA) (DLTA) (?A) (?A) (DLTA) (DLTA)
                 (PHI) (PHI) (DLTA) (DLTA) (PI) (PI) (SG) (PI)
                 (PI) (SG) (SG) (DLTA) (DLTA) (PHI) (PHI) (PI)
                 (PI) (SG) (DLTA) (DLTA) (SG) (PI) (PI) (DLTA)
                 (DLTA) (PI) (PI) (SG) (SG) (PI) (PI) (SG) (SG)
                 (SG) (SG) (SG) (SG) (SG) (SG)
    24 initial guesses have been made.
 Convergence on wavefunction:    0.001000000000000
 Davidson Disk Diagonalization:  ConvIn= 1.00D-03 SkipCon=T Conv= 1.00D-03.
 Max sub-space:  2000 roots to seek:    24 dimension of matrix:         3520
 Iteration     1 Dimension    24 NMult     0 NNew     24
 Estimated number of processors is:   19
 CISAX will form     1 AO SS matrices at one time.
 NMat=     1 NSing=     1 JSym2X= 2.
 FoFJK:  IHMeth= 1 ICntrl=       0 DoSepK=F KAlg= 0 I1Cent=           0 FoldK=F
 IRaf= 980000000 NMat=       1 IRICut=       1 DoRegI=T DoRafI=F ISym2E= 2 IDoP0=0 IntGTp=1.
 FoFCou: FMM=F IPFlag=           0 FMFlag=      100000 FMFlg1=           0
         NFxFlg=           0 DoJE=F BraDBF=F KetDBF=F FulRan=T
         wScrn=  0.000000 ICntrl=         0 IOpCl=  0 I1Cent=           0 NGrid=           0
         NMat0=    1 NMatS0=      1 NMatT0=    0 NMatD0=    1 NMtDS0=    0 NMtDT0=    0
 Integrals replicated using symmetry in FoFCou.
 CoulSu:  requested number of processors reduced to:  21 ShMem   1 Linda.
 NMat=     1 NSing=     1 JSym2X= 2.
 CoulSu:  requested number of processors reduced to:  21 ShMem   1 Linda.
 NMat=     1 NSing=     1 JSym2X= 2.
 CoulSu:  requested number of processors reduced to:  21 ShMem   1 Linda.
 NMat=     1 NSing=     1 JSym2X= 2.
 CoulSu:  requested number of processors reduced to:  21 ShMem   1 Linda.
 NMat=     1 NSing=     1 JSym2X= 2.
 CoulSu:  requested number of processors reduced to:  21 ShMem   1 Linda.
 NMat=     1 NSing=     1 JSym2X= 2.
 CoulSu:  requested number of processors reduced to:  21 ShMem   1 Linda.
 NMat=     1 NSing=     1 JSym2X= 2.
 CoulSu:  requested number of processors reduced to:  21 ShMem   1 Linda.
 NMat=     1 NSing=     1 JSym2X= 2.
 CoulSu:  requested number of processors reduced to:  21 ShMem   1 Linda.
 NMat=     1 NSing=     1 JSym2X= 2.
 CoulSu:  requested number of processors reduced to:  21 ShMem   1 Linda.
 NMat=     1 NSing=     1 JSym2X= 2.
 CoulSu:  requested number of processors reduced to:  21 ShMem   1 Linda.
 NMat=     1 NSing=     1 JSym2X= 2.
 CoulSu:  requested number of processors reduced to:  21 ShMem   1 Linda.
 NMat=     1 NSing=     1 JSym2X= 2.
 CoulSu:  requested number of processors reduced to:  21 ShMem   1 Linda.
 NMat=     1 NSing=     0 JSym2X= 2.
 CoulSu:  requested number of processors reduced to:  21 ShMem   1 Linda.
 NMat=     1 NSing=     0 JSym2X= 2.
 CoulSu:  requested number of processors reduced to:  21 ShMem   1 Linda.
 NMat=     1 NSing=     0 JSym2X= 2.
 CoulSu:  requested number of processors reduced to:  21 ShMem   1 Linda.
 NMat=     1 NSing=     0 JSym2X= 2.
 CoulSu:  requested number of processors reduced to:  21 ShMem   1 Linda.
 NMat=     1 NSing=     0 JSym2X= 2.
 CoulSu:  requested number of processors reduced to:  21 ShMem   1 Linda.
 NMat=     1 NSing=     0 JSym2X= 2.
 CoulSu:  requested number of processors reduced to:  21 ShMem   1 Linda.
 NMat=     1 NSing=     0 JSym2X= 2.
 CoulSu:  requested number of processors reduced to:  21 ShMem   1 Linda.
 NMat=     1 NSing=     0 JSym2X= 2.
 CoulSu:  requested number of processors reduced to:  21 ShMem   1 Linda.
 NMat=     1 NSing=     0 JSym2X= 2.
 CoulSu:  requested number of processors reduced to:  21 ShMem   1 Linda.
 NMat=     1 NSing=     0 JSym2X= 2.
 CoulSu:  requested number of processors reduced to:  21 ShMem   1 Linda.
 NMat=     1 NSing=     0 JSym2X= 2.
 CoulSu:  requested number of processors reduced to:  21 ShMem   1 Linda.
 NMat=     1 NSing=     0 JSym2X= 2.
 CoulSu:  requested number of processors reduced to:  21 ShMem   1 Linda.
 New state      1 was old state      4
 Excitation Energies [eV] at current iteration:
 Root      1 :     4.189050381970286
 Root      2 :     5.079556041899542
 Root      3 :     5.090731654060955
 Root      4 :     6.439597540990246
 Root      5 :     6.440975553947718
 Root      6 :     7.728893712178706
 Root      7 :     7.728915472794545
 Root      8 :     9.579863888813255
 Root      9 :     9.579863888813412
 Root     10 :     9.791265513971387
 Root     11 :     9.791265513971895
 Root     12 :    10.347838419624250
 Root     13 :    10.347838419624680
 Root     14 :    12.942001931479670
 Root     15 :    12.942001931479920
 Root     16 :    13.052601213079160
 Root     17 :    13.052601213079700
 Root     18 :    13.167346353530740
 Root     19 :    13.226616537638500
 Root     20 :    13.303715851043670
 Root     21 :    13.458439778319960
 Root     22 :    13.828307760472640
 Root     23 :    13.828307760472700
 Root     24 :    28.353442607520720
 Iteration     2 Dimension    48 NMult    24 NNew     24
 Estimated number of processors is:   19
 CISAX will form     1 AO SS matrices at one time.
 NMat=     1 NSing=     1 JSym2X= 2.
 CoulSu:  requested number of processors reduced to:  21 ShMem   1 Linda.
 NMat=     1 NSing=     1 JSym2X= 2.
 CoulSu:  requested number of processors reduced to:  21 ShMem   1 Linda.
 NMat=     1 NSing=     1 JSym2X= 2.
 CoulSu:  requested number of processors reduced to:  21 ShMem   1 Linda.
 NMat=     1 NSing=     1 JSym2X= 2.
 CoulSu:  requested number of processors reduced to:  21 ShMem   1 Linda.
 NMat=     1 NSing=     1 JSym2X= 2.
 CoulSu:  requested number of processors reduced to:  21 ShMem   1 Linda.
 NMat=     1 NSing=     1 JSym2X= 2.
 CoulSu:  requested number of processors reduced to:  21 ShMem   1 Linda.
 NMat=     1 NSing=     1 JSym2X= 2.
 CoulSu:  requested number of processors reduced to:  21 ShMem   1 Linda.
 NMat=     1 NSing=     1 JSym2X= 2.
 CoulSu:  requested number of processors reduced to:  21 ShMem   1 Linda.
 NMat=     1 NSing=     1 JSym2X= 2.
 CoulSu:  requested number of processors reduced to:  21 ShMem   1 Linda.
 NMat=     1 NSing=     1 JSym2X= 2.
 CoulSu:  requested number of processors reduced to:  21 ShMem   1 Linda.
 NMat=     1 NSing=     1 JSym2X= 2.
 CoulSu:  requested number of processors reduced to:  21 ShMem   1 Linda.
 NMat=     1 NSing=     1 JSym2X= 2.
 CoulSu:  requested number of processors reduced to:  21 ShMem   1 Linda.
 NMat=     1 NSing=     0 JSym2X= 2.
 CoulSu:  requested number of processors reduced to:  21 ShMem   1 Linda.
 NMat=     1 NSing=     0 JSym2X= 2.
 CoulSu:  requested number of processors reduced to:  21 ShMem   1 Linda.
 NMat=     1 NSing=     0 JSym2X= 2.
 CoulSu:  requested number of processors reduced to:  21 ShMem   1 Linda.
 NMat=     1 NSing=     0 JSym2X= 2.
 CoulSu:  requested number of processors reduced to:  21 ShMem   1 Linda.
 NMat=     1 NSing=     0 JSym2X= 2.
 CoulSu:  requested number of processors reduced to:  21 ShMem   1 Linda.
 NMat=     1 NSing=     0 JSym2X= 2.
 CoulSu:  requested number of processors reduced to:  21 ShMem   1 Linda.
 NMat=     1 NSing=     0 JSym2X= 2.
 CoulSu:  requested number of processors reduced to:  21 ShMem   1 Linda.
 NMat=     1 NSing=     0 JSym2X= 2.
 CoulSu:  requested number of processors reduced to:  21 ShMem   1 Linda.
 NMat=     1 NSing=     0 JSym2X= 2.
 CoulSu:  requested number of processors reduced to:  21 ShMem   1 Linda.
 NMat=     1 NSing=     0 JSym2X= 2.
 CoulSu:  requested number of processors reduced to:  21 ShMem   1 Linda.
 NMat=     1 NSing=     0 JSym2X= 2.
 CoulSu:  requested number of processors reduced to:  21 ShMem   1 Linda.
 NMat=     1 NSing=     0 JSym2X= 2.
 CoulSu:  requested number of processors reduced to:  21 ShMem   1 Linda.
 Root      1 not converged, maximum delta is    0.082892904218352
 Excitation Energies [eV] at current iteration:
 Root      1 :     3.416057514166184   Change is   -0.772992867804102
 Root      2 :     4.662803741097441   Change is   -0.416752300802100
 Root      3 :     4.663090576993025   Change is   -0.427641077067929
 Root      4 :     6.223453268065454   Change is   -0.216144272924793
 Root      5 :     6.223728272615926   Change is   -0.217247281331792
 Root      6 :     7.671705583306269   Change is   -0.057188128872436
 Root      7 :     7.671709271633699   Change is   -0.057206201160846
 Root      8 :     8.800942695452109   Change is   -0.778921193361147
 Root      9 :     8.800942695452296   Change is   -0.778921193361116
 Root     10 :     9.273875391056800   Change is   -0.517390122914587
 Root     11 :     9.273875391057144   Change is   -0.517390122914750
 Root     12 :    10.058800189107430   Change is   -0.289038230516825
 Root     13 :    10.058800189107880   Change is   -0.289038230516800
 Root     14 :    12.233709283634650   Change is   -0.708292647845025
 Root     15 :    12.233709283634730   Change is   -0.708292647845189
 Root     16 :    12.599252167327650   Change is   -0.453349045751512
 Root     17 :    12.599252167328210   Change is   -0.453349045751494
 Root     18 :    12.900992806039250   Change is   -0.266353547491493
 Root     19 :    13.103269922181610   Change is   -0.725037838291022
 Root     20 :    13.103269922181770   Change is   -0.725037838290931
 Root     21 :    13.131051411718310   Change is   -0.095565125920194
 Root     22 :    13.165423313090260   Change is   -0.293016465229696
 Root     23 :    13.171981028283970   Change is   -0.131734822759698
 Root     24 :    18.046928621277140
 Iteration     3 Dimension    54 NMult    48 NNew      6
 Estimated number of processors is:   19
 CISAX will form     1 AO SS matrices at one time.
 NMat=     1 NSing=     1 JSym2X= 2.
 CoulSu:  requested number of processors reduced to:  21 ShMem   1 Linda.
 NMat=     1 NSing=     1 JSym2X= 2.
 CoulSu:  requested number of processors reduced to:  21 ShMem   1 Linda.
 NMat=     1 NSing=     1 JSym2X= 2.
 CoulSu:  requested number of processors reduced to:  21 ShMem   1 Linda.
 NMat=     1 NSing=     0 JSym2X= 2.
 CoulSu:  requested number of processors reduced to:  21 ShMem   1 Linda.
 NMat=     1 NSing=     0 JSym2X= 2.
 CoulSu:  requested number of processors reduced to:  21 ShMem   1 Linda.
 NMat=     1 NSing=     0 JSym2X= 2.
 CoulSu:  requested number of processors reduced to:  21 ShMem   1 Linda.
 DSYEVD-2 returned Info=          82 IAlg= 4 N=    54 NDim=    54 NE2=     1793383 trying  DSYEV.
 Root      1 not converged, maximum delta is    0.022529427506823
 Excitation Energies [eV] at current iteration:
 Root      1 :     3.374981667984661   Change is   -0.041075846181523
 Root      2 :     4.655757973148763   Change is   -0.007332603844262
 Root      3 :     4.655980353988133   Change is   -0.006823387109308
 Root      4 :     6.217851214397341   Change is   -0.005877058218585
 Root      5 :     6.217945071508832   Change is   -0.005508196556622
 Root      6 :     7.670249668243795   Change is   -0.001455915062475
 Iteration     4 Dimension    60 NMult    54 NNew      6
 Estimated number of processors is:   19
 CISAX will form     1 AO SS matrices at one time.
 NMat=     1 NSing=     1 JSym2X= 2.
 CoulSu:  requested number of processors reduced to:  21 ShMem   1 Linda.
 NMat=     1 NSing=     1 JSym2X= 2.
 CoulSu:  requested number of processors reduced to:  21 ShMem   1 Linda.
 NMat=     1 NSing=     1 JSym2X= 2.
 CoulSu:  requested number of processors reduced to:  21 ShMem   1 Linda.
 NMat=     1 NSing=     0 JSym2X= 2.
 CoulSu:  requested number of processors reduced to:  21 ShMem   1 Linda.
 NMat=     1 NSing=     0 JSym2X= 2.
 CoulSu:  requested number of processors reduced to:  21 ShMem   1 Linda.
 NMat=     1 NSing=     0 JSym2X= 2.
 CoulSu:  requested number of processors reduced to:  21 ShMem   1 Linda.
 Root      1 not converged, maximum delta is    0.007796020551245
 Excitation Energies [eV] at current iteration:
 Root      1 :     3.370630006561397   Change is   -0.004351661423264
 Root      2 :     4.655426924498353   Change is   -0.000331048650410
 Root      3 :     4.655626921079445   Change is   -0.000353432908688
 Root      4 :     6.217690736677936   Change is   -0.000160477719406
 Root      5 :     6.217829699223268   Change is   -0.000115372285563
 Root      6 :     7.670197571303322   Change is   -0.000052096940472
 Iteration     5 Dimension    66 NMult    60 NNew      6
 Estimated number of processors is:   19
 CISAX will form     1 AO SS matrices at one time.
 NMat=     1 NSing=     1 JSym2X= 2.
 CoulSu:  requested number of processors reduced to:  21 ShMem   1 Linda.
 NMat=     1 NSing=     1 JSym2X= 2.
 CoulSu:  requested number of processors reduced to:  21 ShMem   1 Linda.
 NMat=     1 NSing=     1 JSym2X= 2.
 CoulSu:  requested number of processors reduced to:  21 ShMem   1 Linda.
 NMat=     1 NSing=     0 JSym2X= 2.
 CoulSu:  requested number of processors reduced to:  21 ShMem   1 Linda.
 NMat=     1 NSing=     0 JSym2X= 2.
 CoulSu:  requested number of processors reduced to:  21 ShMem   1 Linda.
 NMat=     1 NSing=     0 JSym2X= 2.
 CoulSu:  requested number of processors reduced to:  21 ShMem   1 Linda.
 Root      1 not converged, maximum delta is    0.001371377716418
 Excitation Energies [eV] at current iteration:
 Root      1 :     3.370391393000600   Change is   -0.000238613560796
 Root      2 :     4.655409096179450   Change is   -0.000017828318903
 Root      3 :     4.655604382217211   Change is   -0.000022538862235
 Root      4 :     6.217670745652200   Change is   -0.000019991025736
 Root      5 :     6.217826807359942   Change is   -0.000002891863326
 Root      6 :     7.670197284947011   Change is   -0.000000286356311
 Iteration     6 Dimension    72 NMult    66 NNew      6
 Estimated number of processors is:   19
 CISAX will form     1 AO SS matrices at one time.
 NMat=     1 NSing=     1 JSym2X= 2.
 CoulSu:  requested number of processors reduced to:  21 ShMem   1 Linda.
 NMat=     1 NSing=     1 JSym2X= 2.
 CoulSu:  requested number of processors reduced to:  21 ShMem   1 Linda.
 NMat=     1 NSing=     1 JSym2X= 2.
 CoulSu:  requested number of processors reduced to:  21 ShMem   1 Linda.
 NMat=     1 NSing=     0 JSym2X= 2.
 CoulSu:  requested number of processors reduced to:  21 ShMem   1 Linda.
 NMat=     1 NSing=     0 JSym2X= 2.
 CoulSu:  requested number of processors reduced to:  21 ShMem   1 Linda.
 NMat=     1 NSing=     0 JSym2X= 2.
 CoulSu:  requested number of processors reduced to:  21 ShMem   1 Linda.
 Root      1 has converged.
 Excitation Energies [eV] at current iteration:
 Root      1 :     3.370385872868825   Change is   -0.000005520131776
 Root      2 :     4.655408754526881   Change is   -0.000000341652568
 Root      3 :     4.655604112805656   Change is   -0.000000269411555
 Root      4 :     6.217668827883077   Change is   -0.000001917769122
 Root      5 :     6.217826673857804   Change is   -0.000000133502138
 Root      6 :     7.670197280799637   Change is   -0.000000004147374
 Convergence achieved on expansion vectors.
 ***********************************************************************
 Stability analysis using <AA,BB:AA,BB> singles matrix:
 ***********************************************************************
 1PDM for each excited state written to RWF  633
 Ground to excited state transition densities written to RWF  633

 Eigenvectors of the stability matrix:
 
 Excited state symmetry could not be determined.
 Eigenvector   1:      Triplet-?Sym  Eigenvalue= 0.1238594  <S**2>=2.000
      10 -> 12         0.46972
      11 -> 13         0.46972
 The wavefunction is stable under the perturbations considered.
 Leave Link  914 at Sun Apr 18 05:05:57 2021, MaxMem=   104857600 cpu:            4956.0 elap:             132.9
 (Enter /s/ls4/users/knvvv/bin/g16sse/l508.exe)
 The wavefunction is already stable.
 Leave Link  508 at Sun Apr 18 05:05:57 2021, MaxMem=   104857600 cpu:               2.2 elap:               0.1
 (Enter /s/ls4/users/knvvv/bin/g16sse/l601.exe)
 Copying SCF densities to generalized density rwf, IOpCl= 0 IROHF=0.

 **********************************************************************

            Population analysis using the SCF density.

 **********************************************************************

 Orbital symmetries:
       Occupied  (SG) (SG) (SG) (SG) (SG) (SG) (PI) (PI) (SG) (PI)
                 (PI)
       Virtual   (PI) (PI) (SG) (SG) (PI) (PI) (SG) (PI) (PI) (SG)
                 (SG) (PI) (PI) (DLTA) (DLTA) (SG) (SG) (SG) (DLTA)
                 (DLTA) (PI) (PI) (PI) (PI) (SG) (PI) (PI) (SG)
                 (DLTA) (DLTA) (SG) (PI) (PI) (PI) (PI) (SG) (SG)
                 (PI) (PI) (SG) (PHI) (PHI) (DLTA) (DLTA) (SG)
                 (DLTA) (DLTA) (PHI) (PHI) (PI) (PI) (DLTA) (DLTA)
                 (PI) (PI) (SG) (SG) (PHI) (PHI) (DLTA) (DLTA)
                 (SG) (PI) (PI) (SG) (PI) (PI) (SG) (DLTA) (DLTA)
                 (PI) (PI) (SG) (DLTA) (DLTA) (PI) (PI) (SG) (SG)
                 (PI) (PI) (PI) (PI) (SG) (PHI) (PHI) (PI) (PI)
                 (?A) (?A) (SG) (DLTA) (DLTA) (?A) (?A) (PI) (PI)
                 (SG) (PHI) (PHI) (PI) (PI) (SG) (DLTA) (DLTA)
                 (PHI) (PHI) (PHI) (PHI) (DLTA) (DLTA) (SG) (SG)
                 (PI) (PI) (DLTA) (DLTA) (?A) (?A) (DLTA) (DLTA)
                 (PHI) (PHI) (DLTA) (DLTA) (PI) (PI) (SG) (PI)
                 (PI) (SG) (SG) (DLTA) (DLTA) (PHI) (PHI) (PI)
                 (PI) (SG) (DLTA) (DLTA) (SG) (PI) (PI) (DLTA)
                 (DLTA) (PI) (PI) (SG) (SG) (PI) (PI) (SG) (SG)
                 (SG) (SG) (SG) (SG) (SG) (SG)
 The electronic state is 1-SG.
 Alpha  occ. eigenvalues --  -19.72843 -14.99709 -14.86446  -1.37489  -1.20325
 Alpha  occ. eigenvalues --   -0.70126  -0.65640  -0.65640  -0.57009  -0.41506
 Alpha  occ. eigenvalues --   -0.41506
 Alpha virt. eigenvalues --    0.02684   0.02684   0.10567   0.17088   0.20048
 Alpha virt. eigenvalues --    0.20048   0.24120   0.29580   0.29580   0.31917
 Alpha virt. eigenvalues --    0.36034   0.40104   0.40104   0.59615   0.59615
 Alpha virt. eigenvalues --    0.60293   0.76018   0.80878   0.87854   0.87854
 Alpha virt. eigenvalues --    0.93926   0.93926   1.03545   1.03545   1.06684
 Alpha virt. eigenvalues --    1.16131   1.16131   1.22374   1.25081   1.25081
 Alpha virt. eigenvalues --    1.33732   1.36483   1.36483   1.47196   1.47196
 Alpha virt. eigenvalues --    1.48463   1.58301   1.94658   1.94658   2.15575
 Alpha virt. eigenvalues --    2.16575   2.16575   2.32446   2.32446   2.49754
 Alpha virt. eigenvalues --    2.57145   2.57145   2.59742   2.59742   2.61328
 Alpha virt. eigenvalues --    2.61328   2.83369   2.83370   2.84890   2.84890
 Alpha virt. eigenvalues --    2.89658   2.92214   3.18512   3.18512   3.20373
 Alpha virt. eigenvalues --    3.20373   3.25116   3.32125   3.32125   3.58191
 Alpha virt. eigenvalues --    3.59094   3.59094   3.75242   3.84127   3.84127
 Alpha virt. eigenvalues --    3.85785   3.85785   3.94524   4.10451   4.10451
 Alpha virt. eigenvalues --    4.25956   4.25956   4.39708   4.77403   4.78761
 Alpha virt. eigenvalues --    4.78761   5.00559   5.00559   5.52224   6.15389
 Alpha virt. eigenvalues --    6.15389   6.16078   6.16078   6.46663   6.46664
 Alpha virt. eigenvalues --    6.64917   6.67614   6.67614   6.81559   6.81560
 Alpha virt. eigenvalues --    7.11670   7.11670   7.17400   7.46705   7.46705
 Alpha virt. eigenvalues --    7.52091   7.52091   7.66679   7.88101   7.88102
 Alpha virt. eigenvalues --    8.12780   8.12780   8.31416   8.31416   8.31446
 Alpha virt. eigenvalues --    8.31446   8.35556   8.48496   8.56567   8.56567
 Alpha virt. eigenvalues --    8.66418   8.66419   8.73866   8.73868   8.82349
 Alpha virt. eigenvalues --    8.82350   8.98459   8.98459   9.15874   9.15876
 Alpha virt. eigenvalues --    9.17436   9.17436   9.42055   9.79808   9.79808
 Alpha virt. eigenvalues --    9.89241  10.27827  10.53142  10.53143  10.77029
 Alpha virt. eigenvalues --   10.77029  10.94245  10.94245  11.04357  11.06909
 Alpha virt. eigenvalues --   11.06909  11.22948  11.40909  11.40909  11.89324
 Alpha virt. eigenvalues --   11.89326  12.44935  12.44935  12.60845  13.82637
 Alpha virt. eigenvalues --   14.16952  14.16952  14.68483  15.89007  37.01079
 Alpha virt. eigenvalues --   38.94883  47.90485 194.45530 196.54982 250.91135
          Condensed to atoms (all electrons):
               1          2          3
     1  N    6.644507   0.513447  -0.096794
     2  N    0.513447   5.627815   0.572999
     3  O   -0.096794   0.572999   7.748373
 Mulliken charges:
               1
     1  N   -0.061161
     2  N    0.285739
     3  O   -0.224578
 Sum of Mulliken charges =  -0.00000
 Mulliken charges with hydrogens summed into heavy atoms:
               1
     1  N   -0.061161
     2  N    0.285739
     3  O   -0.224578
 Electronic spatial extent (au):  <R**2>=            108.7123
 Charge=             -0.0000 electrons
 Dipole moment (field-independent basis, Debye):
    X=              0.0000    Y=             -0.0000    Z=             -0.2740  Tot=              0.2740
 Quadrupole moment (field-independent basis, Debye-Ang):
   XX=            -15.3470   YY=            -15.3470   ZZ=            -19.0767
   XY=              0.0000   XZ=              0.0000   YZ=             -0.0000
 Traceless Quadrupole moment (field-independent basis, Debye-Ang):
   XX=              1.2432   YY=              1.2432   ZZ=             -2.4865
   XY=              0.0000   XZ=              0.0000   YZ=             -0.0000
 Octapole moment (field-independent basis, Debye-Ang**2):
  XXX=              0.0000  YYY=             -0.0000  ZZZ=              4.6739  XYY=              0.0000
  XXY=             -0.0000  XXZ=              0.9491  XZZ=              0.0000  YZZ=             -0.0000
  YYZ=              0.9491  XYZ=              0.0000
 Hexadecapole moment (field-independent basis, Debye-Ang**3):
 XXXX=            -12.3767 YYYY=            -12.3767 ZZZZ=           -106.3780 XXXY=              0.0000
 XXXZ=              0.0000 YYYX=              0.0000 YYYZ=             -0.0000 ZZZX=              0.0000
 ZZZY=             -0.0000 XXYY=             -4.1256 XXZZ=            -19.5187 YYZZ=            -19.5187
 XXYZ=             -0.0000 YYXZ=              0.0000 ZZXY=             -0.0000
 N-N= 6.072505945467D+01 E-N=-5.547327578982D+02  KE= 1.839720891301D+02
 PrsmSu:  requested number of processors reduced to:  21 ShMem   1 Linda.
 No NMR shielding tensors so no spin-rotation constants.
 Leave Link  601 at Sun Apr 18 05:06:00 2021, MaxMem=   104857600 cpu:             153.0 elap:               3.4
 (Enter /s/ls4/users/knvvv/bin/g16sse/l9999.exe)

 Test job not archived.
 1\1\GINC-N178\Stability\RM062X\def2QZVP\N2O1\KNVVV\18-Apr-2021\0\\#P M
 062X/Def2QZVP Integral=UltraFineGrid SCF=NoSymm Stable=(RExt, Opt) IOp
 (1/33=1)\\Database calculations.\\0,1\N,0,0.,0.,0.\N,0,0.,0.,1.1291\O,
 0,0.,0.,2.3161\\Version=ES64L-G16RevA.03\State=1-SG\HF=-184.6805686\RM
 SD=2.435e-09\Dipole=0.,0.,-0.107816\Quadrupole=0.9243226,0.9243226,-1.
 8486453,0.,0.,0.\PG=C*V [C*(N1N1O1)]\\@


 DEMOCRATS BUY MOST OF THE BOOKS THAT HAVE BEEN
 BANNED; REPUBLICANS FORM CENSORSHIP COMMITTEES AND
 READ THEM AS A GROUP.
 Job cpu time:       0 days  1 hours 53 minutes 23.1 seconds.
 Elapsed time:       0 days  0 hours  2 minutes 57.5 seconds.
 File lengths (MBytes):  RWF=    114 Int=      0 D2E=      0 Chk=      5 Scr=      1
 Normal termination of Gaussian 16 at Sun Apr 18 05:06:00 2021.
