 Entering Gaussian System, Link 0=/s/ls4/groups/g0130/bin/g16/g16
 Input=M062X--def2-QZVP--ISOL24_i1p.gjf
 Output=M062X--def2-QZVP--ISOL24_i1p.log
 Initial command:
 /s/ls4/groups/g0130/bin/g16/l1.exe "/dev/shm/scratch_knvvv/Gau-2460.inp" -scrdir="/dev/shm/scratch_knvvv/"
 Entering Link 1 = /s/ls4/groups/g0130/bin/g16/l1.exe PID=      2461.
  
 Copyright (c) 1988,1990,1992,1993,1995,1998,2003,2009,2016,
            Gaussian, Inc.  All Rights Reserved.
  
 This is part of the Gaussian(R) 16 program.  It is based on
 the Gaussian(R) 09 system (copyright 2009, Gaussian, Inc.),
 the Gaussian(R) 03 system (copyright 2003, Gaussian, Inc.),
 the Gaussian(R) 98 system (copyright 1998, Gaussian, Inc.),
 the Gaussian(R) 94 system (copyright 1995, Gaussian, Inc.),
 the Gaussian 92(TM) system (copyright 1992, Gaussian, Inc.),
 the Gaussian 90(TM) system (copyright 1990, Gaussian, Inc.),
 the Gaussian 88(TM) system (copyright 1988, Gaussian, Inc.),
 the Gaussian 86(TM) system (copyright 1986, Carnegie Mellon
 University), and the Gaussian 82(TM) system (copyright 1983,
 Carnegie Mellon University). Gaussian is a federally registered
 trademark of Gaussian, Inc.
  
 This software contains proprietary and confidential information,
 including trade secrets, belonging to Gaussian, Inc.
  
 This software is provided under written license and may be
 used, copied, transmitted, or stored only in accord with that
 written license.
  
 The following legend is applicable only to US Government
 contracts under FAR:
  
                    RESTRICTED RIGHTS LEGEND
  
 Use, reproduction and disclosure by the US Government is
 subject to restrictions as set forth in subparagraphs (a)
 and (c) of the Commercial Computer Software - Restricted
 Rights clause in FAR 52.227-19.
  
 Gaussian, Inc.
 340 Quinnipiac St., Bldg. 40, Wallingford CT 06492
  
  
 ---------------------------------------------------------------
 Warning -- This program may not be used in any manner that
 competes with the business of Gaussian, Inc. or will provide
 assistance to any competitor of Gaussian, Inc.  The licensee
 of this program is prohibited from giving any competitor of
 Gaussian, Inc. access to this program.  By using this program,
 the user acknowledges that Gaussian, Inc. is engaged in the
 business of creating and licensing software in the field of
 computational chemistry and represents and warrants to the
 licensee that it is not a competitor of Gaussian, Inc. and that
 it will not use this program in any manner prohibited above.
 ---------------------------------------------------------------
  

 Cite this work as:
 Gaussian 16, Revision A.03,
 M. J. Frisch, G. W. Trucks, H. B. Schlegel, G. E. Scuseria, 
 M. A. Robb, J. R. Cheeseman, G. Scalmani, V. Barone, 
 G. A. Petersson, H. Nakatsuji, X. Li, M. Caricato, A. V. Marenich, 
 J. Bloino, B. G. Janesko, R. Gomperts, B. Mennucci, H. P. Hratchian, 
 J. V. Ortiz, A. F. Izmaylov, J. L. Sonnenberg, D. Williams-Young, 
 F. Ding, F. Lipparini, F. Egidi, J. Goings, B. Peng, A. Petrone, 
 T. Henderson, D. Ranasinghe, V. G. Zakrzewski, J. Gao, N. Rega, 
 G. Zheng, W. Liang, M. Hada, M. Ehara, K. Toyota, R. Fukuda, 
 J. Hasegawa, M. Ishida, T. Nakajima, Y. Honda, O. Kitao, H. Nakai, 
 T. Vreven, K. Throssell, J. A. Montgomery, Jr., J. E. Peralta, 
 F. Ogliaro, M. J. Bearpark, J. J. Heyd, E. N. Brothers, K. N. Kudin, 
 V. N. Staroverov, T. A. Keith, R. Kobayashi, J. Normand, 
 K. Raghavachari, A. P. Rendell, J. C. Burant, S. S. Iyengar, 
 J. Tomasi, M. Cossi, J. M. Millam, M. Klene, C. Adamo, R. Cammi, 
 J. W. Ochterski, R. L. Martin, K. Morokuma, O. Farkas, 
 J. B. Foresman, and D. J. Fox, Gaussian, Inc., Wallingford CT, 2016.
 
 ******************************************
 Gaussian 16:  ES64L-G16RevA.03 25-Dec-2016
                20-Apr-2021 
 ******************************************
 %nprocshared=48
 Will use up to   48 processors via shared memory.
 %mem=90GB
 ----------------------------------------------------------------------
 #P M062X/Def2QZVP Integral=UltraFineGrid SCF=NoSymm Stable=(RExt, Opt)
  IOp(1/33=1)
 ----------------------------------------------------------------------
 1/33=1,38=1,172=1/1;
 2/12=2,17=6,18=5,40=1/2;
 3/5=45,7=101,11=2,25=1,30=1,74=-55,75=-5/1,2,3;
 4/9=2/1;
 5/5=2,38=5/2;
 6/7=2,8=2,9=2,10=2,28=1/1;
 8/6=1,10=90,11=11/1;
 9/8=-3,42=1,46=1/14;
 5/5=2,8=3,17=40,38=5/8(-2);
 6/7=2,8=2,9=2,10=2,28=1/1;
 99/5=1,9=1/99;
 Leave Link    1 at Tue Apr 20 10:36:07 2021, MaxMem= 12079595520 cpu:               8.1 elap:               0.2
 (Enter /s/ls4/groups/g0130/bin/g16/l101.exe)
 ONIOM data not found on unit 2.
 ----------------------
 Database calculations.
 ----------------------
 TstMul:  ICh=     0
 TstMul:  Mul=     1
 TstMul:  ICh=     0
 TstMul:  Mul=     1
 Symbolic Z-matrix:
 Charge =  0 Multiplicity = 1
 C                    -0.93505   1.36315   0.36207 
 C                    -0.89016  -0.18031   0.09261 
 C                     0.63893  -0.03882   0.19239 
 C                     0.33861   1.48059  -0.14307 
 C                     1.15214   2.58373  -0.79194 
 C                     1.84372   3.52078   0.22685 
 C                     2.227     1.93716  -1.68956 
 C                     0.24331   3.43291  -1.71092 
 C                    -2.09138   2.23386   0.79238 
 C                    -1.60046   3.51983   1.48953 
 C                    -2.99929   2.6132   -0.40604 
 C                    -2.941     1.42095   1.79656 
 C                    -0.6376   -1.71073   0.24524 
 C                     0.63069  -1.54704  -0.29158 
 C                     1.31353  -0.07878   1.68544 
 C                     0.88385   1.08132   2.60887 
 C                     2.83701   0.02337   1.47094 
 C                     1.04039  -1.3635    2.50462 
 C                     1.56595  -2.44241  -1.06702 
 C                     2.31109  -3.43865  -0.14508 
 C                     0.73743  -3.24151  -2.10606 
 C                     2.58553  -1.5844   -1.83959 
 C                    -1.37122  -0.2015   -1.39112 
 O                    -0.72246   0.02317  -2.39514 
 O                    -2.6836   -0.53915  -1.41107 
 C                    -3.29509  -0.6249   -2.72176 
 C                    -1.5142   -2.7979    0.66137 
 O                    -2.64483  -2.6462    1.09094 
 O                    -0.89866  -4.02555   0.5855 
 C                    -1.7004   -5.14443   1.02888 
 H                     2.36022   4.32358  -0.31722 
 H                     1.11541   3.97562   0.90684 
 H                     2.58747   2.98442   0.82629 
 H                     2.90614   1.30474  -1.11042 
 H                     1.75058   1.31668  -2.45525 
 H                     2.81457   2.72509  -2.17973 
 H                    -0.28649   2.78556  -2.41829 
 H                    -0.49141   4.00548  -1.1381 
 H                     0.86191   4.14485  -2.27439 
 H                    -0.94401   3.27696   2.33243 
 H                    -1.05444   4.17392   0.80308 
 H                    -2.46694   4.07706   1.87028 
 H                    -2.43842   3.14584  -1.18015 
 H                    -3.44655   1.71696  -0.84584 
 H                    -3.81037   3.26358  -0.0497 
 H                    -2.36143   1.1816    2.69704 
 H                    -3.81788   2.00983   2.09764 
 H                    -3.27718   0.48059   1.34538 
 H                     1.41233   0.97041   3.56566 
 H                     1.12048   2.06473   2.20236 
 H                    -0.1932    1.04592   2.80533 
 H                     3.34443   0.03428   2.44531 
 H                     3.21794  -0.83173   0.90417 
 H                     3.10762   0.94002   0.93824 
 H                    -0.03153  -1.48357   2.705 
 H                     1.39929  -2.27365   2.01987 
 H                     1.55773  -1.26712   3.46881 
 H                     2.97144  -2.91657   0.55664 
 H                     1.59996  -4.04796   0.42135 
 H                     2.9284   -4.09872  -0.76945 
 H                     0.0194   -3.90105  -1.61206 
 H                     0.20209  -2.55131  -2.76831 
 H                     1.42056  -3.85199  -2.71238 
 H                     3.20711  -0.98645  -1.16652 
 H                     3.23983  -2.2439   -2.42482 
 H                     2.06579  -0.90433  -2.52166 
 H                    -3.25202   0.34867  -3.22443 
 H                    -2.77477  -1.37015  -3.33447 
 H                    -4.32934  -0.92465  -2.53631 
 H                    -1.06604  -6.0248    0.89496 
 H                    -1.9793   -5.02094   2.08221 
 H                    -2.61312  -5.22576   0.42636 
 
 RdStrC is calling ZToCFu for IStruc=1 NZ=    72.
 PrtBox:  NBox=    12 Levels=  2 BoxLen=    8.00 SMaxX=       19.56
          Shift=            8.181276           11.385219            6.301242
 Box      1 Number                   0 centers from      1 to      4:
 Box      2 Number                   1 centers from      5 to      7:
 Box      3 Number                   2 centers from      8 to     19:
 Box      4 Number                   3 centers from     20 to     24:
 Box      5 Number                   4 centers from     25 to     34:
 Box      6 Number                   5 centers from     35 to     35:
 Box      7 Number                   6 centers from     36 to     44:
 Box      8 Number                   7 centers from     45 to     55:
 Box      9 Number                  16 centers from     56 to     61:
 Box     10 Number                  17 centers from     62 to     64:
 Box     11 Number                  20 centers from     65 to     71:
 Box     12 Number                  21 centers from     72 to     72:
 After GenITR:
 ITRead=  0  0  0  0  0  0  0  0  0  0  0  0  0  0  0  0  0  0  0  0
 ITRead=  0  0  0  0  0  0  0  0  0  0  0  0  0  0  0  0  0  0  0  0
 ITRead=  0  0  0  0  0  0  0  0  0  0  0  0  0  0  0  0  0  0  0  0
 ITRead=  0  0  0  0  0  0  0  0  0  0  0  0
 MicOpt= -1 -1 -1 -1 -1 -1 -1 -1 -1 -1 -1 -1 -1 -1 -1 -1 -1 -1 -1 -1
 MicOpt= -1 -1 -1 -1 -1 -1 -1 -1 -1 -1 -1 -1 -1 -1 -1 -1 -1 -1 -1 -1
 MicOpt= -1 -1 -1 -1 -1 -1 -1 -1 -1 -1 -1 -1 -1 -1 -1 -1 -1 -1 -1 -1
 MicOpt= -1 -1 -1 -1 -1 -1 -1 -1 -1 -1 -1 -1
 ITRead=  0  0  0  0  0  0  0  0  0  0  0  0  0  0  0  0  0  0  0  0
 ITRead=  0  0  0  0  0  0  0  0  0  0  0  0  0  0  0  0  0  0  0  0
 ITRead=  0  0  0  0  0  0  0  0  0  0  0  0  0  0  0  0  0  0  0  0
 ITRead=  0  0  0  0  0  0  0  0  0  0  0  0
 MicOpt= -1 -1 -1 -1 -1 -1 -1 -1 -1 -1 -1 -1 -1 -1 -1 -1 -1 -1 -1 -1
 MicOpt= -1 -1 -1 -1 -1 -1 -1 -1 -1 -1 -1 -1 -1 -1 -1 -1 -1 -1 -1 -1
 MicOpt= -1 -1 -1 -1 -1 -1 -1 -1 -1 -1 -1 -1 -1 -1 -1 -1 -1 -1 -1 -1
 MicOpt= -1 -1 -1 -1 -1 -1 -1 -1 -1 -1 -1 -1
 NAtoms=     72 NQM=       72 NQMF=       0 NMMI=      0 NMMIF=      0
                NMic=       0 NMicF=      0.
                    Isotopes and Nuclear Properties:
 (Nuclear quadrupole moments (NQMom) in fm**2, nuclear magnetic moments (NMagM)
  in nuclear magnetons)

  Atom         1           2           3           4           5           6           7           8           9          10
 IAtWgt=          12          12          12          12          12          12          12          12          12          12
 AtmWgt=  12.0000000  12.0000000  12.0000000  12.0000000  12.0000000  12.0000000  12.0000000  12.0000000  12.0000000  12.0000000
 NucSpn=           0           0           0           0           0           0           0           0           0           0
 AtZEff=  -0.0000000  -0.0000000  -0.0000000  -0.0000000  -0.0000000  -0.0000000  -0.0000000  -0.0000000  -0.0000000  -0.0000000
 NQMom=    0.0000000   0.0000000   0.0000000   0.0000000   0.0000000   0.0000000   0.0000000   0.0000000   0.0000000   0.0000000
 NMagM=    0.0000000   0.0000000   0.0000000   0.0000000   0.0000000   0.0000000   0.0000000   0.0000000   0.0000000   0.0000000
 AtZNuc=   6.0000000   6.0000000   6.0000000   6.0000000   6.0000000   6.0000000   6.0000000   6.0000000   6.0000000   6.0000000

  Atom        11          12          13          14          15          16          17          18          19          20
 IAtWgt=          12          12          12          12          12          12          12          12          12          12
 AtmWgt=  12.0000000  12.0000000  12.0000000  12.0000000  12.0000000  12.0000000  12.0000000  12.0000000  12.0000000  12.0000000
 NucSpn=           0           0           0           0           0           0           0           0           0           0
 AtZEff=  -0.0000000  -0.0000000  -0.0000000  -0.0000000  -0.0000000  -0.0000000  -0.0000000  -0.0000000  -0.0000000  -0.0000000
 NQMom=    0.0000000   0.0000000   0.0000000   0.0000000   0.0000000   0.0000000   0.0000000   0.0000000   0.0000000   0.0000000
 NMagM=    0.0000000   0.0000000   0.0000000   0.0000000   0.0000000   0.0000000   0.0000000   0.0000000   0.0000000   0.0000000
 AtZNuc=   6.0000000   6.0000000   6.0000000   6.0000000   6.0000000   6.0000000   6.0000000   6.0000000   6.0000000   6.0000000

  Atom        21          22          23          24          25          26          27          28          29          30
 IAtWgt=          12          12          12          16          16          12          12          16          16          12
 AtmWgt=  12.0000000  12.0000000  12.0000000  15.9949146  15.9949146  12.0000000  12.0000000  15.9949146  15.9949146  12.0000000
 NucSpn=           0           0           0           0           0           0           0           0           0           0
 AtZEff=  -0.0000000  -0.0000000  -0.0000000  -0.0000000  -0.0000000  -0.0000000  -0.0000000  -0.0000000  -0.0000000  -0.0000000
 NQMom=    0.0000000   0.0000000   0.0000000   0.0000000   0.0000000   0.0000000   0.0000000   0.0000000   0.0000000   0.0000000
 NMagM=    0.0000000   0.0000000   0.0000000   0.0000000   0.0000000   0.0000000   0.0000000   0.0000000   0.0000000   0.0000000
 AtZNuc=   6.0000000   6.0000000   6.0000000   8.0000000   8.0000000   6.0000000   6.0000000   8.0000000   8.0000000   6.0000000

  Atom        31          32          33          34          35          36          37          38          39          40
 IAtWgt=           1           1           1           1           1           1           1           1           1           1
 AtmWgt=   1.0078250   1.0078250   1.0078250   1.0078250   1.0078250   1.0078250   1.0078250   1.0078250   1.0078250   1.0078250
 NucSpn=           1           1           1           1           1           1           1           1           1           1
 AtZEff=  -0.0000000  -0.0000000  -0.0000000  -0.0000000  -0.0000000  -0.0000000  -0.0000000  -0.0000000  -0.0000000  -0.0000000
 NQMom=    0.0000000   0.0000000   0.0000000   0.0000000   0.0000000   0.0000000   0.0000000   0.0000000   0.0000000   0.0000000
 NMagM=    2.7928460   2.7928460   2.7928460   2.7928460   2.7928460   2.7928460   2.7928460   2.7928460   2.7928460   2.7928460
 AtZNuc=   1.0000000   1.0000000   1.0000000   1.0000000   1.0000000   1.0000000   1.0000000   1.0000000   1.0000000   1.0000000

  Atom        41          42          43          44          45          46          47          48          49          50
 IAtWgt=           1           1           1           1           1           1           1           1           1           1
 AtmWgt=   1.0078250   1.0078250   1.0078250   1.0078250   1.0078250   1.0078250   1.0078250   1.0078250   1.0078250   1.0078250
 NucSpn=           1           1           1           1           1           1           1           1           1           1
 AtZEff=  -0.0000000  -0.0000000  -0.0000000  -0.0000000  -0.0000000  -0.0000000  -0.0000000  -0.0000000  -0.0000000  -0.0000000
 NQMom=    0.0000000   0.0000000   0.0000000   0.0000000   0.0000000   0.0000000   0.0000000   0.0000000   0.0000000   0.0000000
 NMagM=    2.7928460   2.7928460   2.7928460   2.7928460   2.7928460   2.7928460   2.7928460   2.7928460   2.7928460   2.7928460
 AtZNuc=   1.0000000   1.0000000   1.0000000   1.0000000   1.0000000   1.0000000   1.0000000   1.0000000   1.0000000   1.0000000

  Atom        51          52          53          54          55          56          57          58          59          60
 IAtWgt=           1           1           1           1           1           1           1           1           1           1
 AtmWgt=   1.0078250   1.0078250   1.0078250   1.0078250   1.0078250   1.0078250   1.0078250   1.0078250   1.0078250   1.0078250
 NucSpn=           1           1           1           1           1           1           1           1           1           1
 AtZEff=  -0.0000000  -0.0000000  -0.0000000  -0.0000000  -0.0000000  -0.0000000  -0.0000000  -0.0000000  -0.0000000  -0.0000000
 NQMom=    0.0000000   0.0000000   0.0000000   0.0000000   0.0000000   0.0000000   0.0000000   0.0000000   0.0000000   0.0000000
 NMagM=    2.7928460   2.7928460   2.7928460   2.7928460   2.7928460   2.7928460   2.7928460   2.7928460   2.7928460   2.7928460
 AtZNuc=   1.0000000   1.0000000   1.0000000   1.0000000   1.0000000   1.0000000   1.0000000   1.0000000   1.0000000   1.0000000

  Atom        61          62          63          64          65          66          67          68          69          70
 IAtWgt=           1           1           1           1           1           1           1           1           1           1
 AtmWgt=   1.0078250   1.0078250   1.0078250   1.0078250   1.0078250   1.0078250   1.0078250   1.0078250   1.0078250   1.0078250
 NucSpn=           1           1           1           1           1           1           1           1           1           1
 AtZEff=  -0.0000000  -0.0000000  -0.0000000  -0.0000000  -0.0000000  -0.0000000  -0.0000000  -0.0000000  -0.0000000  -0.0000000
 NQMom=    0.0000000   0.0000000   0.0000000   0.0000000   0.0000000   0.0000000   0.0000000   0.0000000   0.0000000   0.0000000
 NMagM=    2.7928460   2.7928460   2.7928460   2.7928460   2.7928460   2.7928460   2.7928460   2.7928460   2.7928460   2.7928460
 AtZNuc=   1.0000000   1.0000000   1.0000000   1.0000000   1.0000000   1.0000000   1.0000000   1.0000000   1.0000000   1.0000000

  Atom        71          72
 IAtWgt=           1           1
 AtmWgt=   1.0078250   1.0078250
 NucSpn=           1           1
 AtZEff=  -0.0000000  -0.0000000
 NQMom=    0.0000000   0.0000000
 NMagM=    2.7928460   2.7928460
 AtZNuc=   1.0000000   1.0000000
 No MM parameters found.
 Leave Link  101 at Tue Apr 20 10:36:08 2021, MaxMem= 12079595520 cpu:               9.9 elap:               0.2
 (Enter /s/ls4/groups/g0130/bin/g16/l202.exe)
 Stoichiometry    C26H42O4
 Framework group  C1[X(C26H42O4)]
 Deg. of freedom   210
 Full point group                 C1      NOp   1
 Largest Abelian subgroup         C1      NOp   1
 Largest concise Abelian subgroup C1      NOp   1
                         Standard orientation:                         
 ---------------------------------------------------------------------
 Center     Atomic      Atomic             Coordinates (Angstroms)
 Number     Number       Type             X           Y           Z
 ---------------------------------------------------------------------
      1          6           0       -1.583500    0.695608   -0.396635
      2          6           0       -0.037205    0.685798   -0.140219
      3          6           0       -0.145371   -0.846304   -0.235370
      4          6           0       -1.668215   -0.579125    0.112337
      5          6           0       -2.747394   -1.415470    0.772391
      6          6           0       -3.677368   -2.130246   -0.236837
      7          6           0       -2.069431   -2.473465    1.666879
      8          6           0       -3.608848   -0.523570    1.696530
      9          6           0       -2.483407    1.831188   -0.822110
     10          6           0       -3.763957    1.310029   -1.507187
     11          6           0       -2.872764    2.733324    0.377461
     12          6           0       -1.698189    2.696283   -1.835067
     13          6           0        1.497129    0.467053   -0.305302
     14          6           0        1.366323   -0.803266    0.235732
     15          6           0       -0.103000   -1.523478   -1.727191
     16          6           0       -1.280171   -1.122013   -2.641677
     17          6           0       -0.169306   -3.048325   -1.508413
     18          6           0        1.168329   -1.223746   -2.557882
     19          6           0        2.288868   -1.716442    1.005613
     20          6           0        3.293655   -2.441425    0.076900
     21          6           0        3.078043   -0.867786    2.035962
     22          6           0        1.460394   -2.753020    1.787743
     23          6           0       -0.014202    1.170812    1.342194
     24          8           0       -0.215837    0.519645    2.349539
     25          8           0        0.294230    2.490437    1.356327
     26          6           0        0.377400    3.106866    2.664872
     27          6           0        2.560908    1.366663   -0.732631
     28          8           0        2.380381    2.492582   -1.163425
     29          8           0        3.802581    0.778834   -0.665830
     30          6           0        4.899500    1.604239   -1.120519
     31          1           0       -4.463807   -2.663192    0.315206
     32          1           0       -4.154082   -1.413913   -0.914558
     33          1           0       -3.129630   -2.863305   -0.839148
     34          1           0       -1.426939   -3.139740    1.083900
     35          1           0       -1.453289   -1.981468    2.426196
     36          1           0       -2.839879   -3.077262    2.165059
     37          1           0       -2.967517    0.022246    2.397177
     38          1           0       -4.202494    0.196811    1.126955
     39          1           0       -4.302016   -1.156516    2.267416
     40          1           0       -3.513640    0.657106   -2.350647
     41          1           0       -4.399867    0.751230   -0.813979
     42          1           0       -4.343586    2.162941   -1.885117
     43          1           0       -3.386193    2.162598    1.157332
     44          1           0       -1.983042    3.201517    0.808618
     45          1           0       -3.544080    3.528827    0.024852
     46          1           0       -1.453587    2.120004   -2.736254
     47          1           0       -2.309012    3.559072   -2.133088
     48          1           0       -0.761779    3.054436   -1.392665
     49          1           0       -1.165591   -1.650206   -3.598186
     50          1           0       -2.254575   -1.379523   -2.226282
     51          1           0       -1.270479   -0.044918   -2.840843
     52          1           0       -0.177129   -3.558228   -2.481516
     53          1           0        0.698847   -3.408718   -0.948095
     54          1           0       -1.075154   -3.338012   -0.967330
     55          1           0        1.262750   -0.149907   -2.761672
     56          1           0        2.090327   -1.561090   -2.080094
     57          1           0        1.075363   -1.745445   -3.520054
     58          1           0        2.780531   -3.114948   -0.618867
     59          1           0        3.882130   -1.718263   -0.496281
     60          1           0        3.972594   -3.042346    0.697013
     61          1           0        3.717190   -0.136437    1.534753
     62          1           0        2.381696   -0.346366    2.702860
     63          1           0        3.708721   -1.535661    2.638586
     64          1           0        0.870795   -3.389413    1.121174
     65          1           0        2.139258   -3.391026    2.368800
     66          1           0        0.774688   -2.246920    2.474412
     67          1           0       -0.590685    3.043326    3.175905
     68          1           0        1.139224    2.604786    3.272384
     69          1           0        0.652416    4.147097    2.474558
     70          1           0        5.794909    0.989993   -0.992672
     71          1           0        4.760915    1.877755   -2.173381
     72          1           0        4.965535    2.520008   -0.520751
 ---------------------------------------------------------------------
 Rotational constants (GHZ):           0.2121566           0.1523747           0.1318438
 Leave Link  202 at Tue Apr 20 10:36:08 2021, MaxMem= 12079595520 cpu:               5.6 elap:               0.1
 (Enter /s/ls4/groups/g0130/bin/g16/l301.exe)
 Standard basis: def2QZVP (5D, 7F)
 Ernie: Thresh=  0.10000D-02 Tol=  0.10000D-05 Strict=F.
 There are  3630 symmetry adapted cartesian basis functions of A   symmetry.
 There are  2970 symmetry adapted basis functions of A   symmetry.
  2970 basis functions,  4356 primitive gaussians,  3630 cartesian basis functions
   115 alpha electrons      115 beta electrons
       nuclear repulsion energy      3554.1119264771 Hartrees.
 IExCor= 4336 DFT=T Ex+Corr=M062X ExCW=0 ScaHFX=  0.540000
 ScaDFX=  1.000000  1.000000  1.000000  1.000000 ScalE2=  1.000000  1.000000
 IRadAn=      5 IRanWt=     -1 IRanGd=            0 ICorTp=0 IEmpDi=  4
 NAtoms=   72 NActive=   72 NUniq=   72 SFac= 1.00D+00 NAtFMM=   60 NAOKFM=T Big=T
 Integral buffers will be    131072 words long.
 Raffenetti 2 integral format.
 Two-electron integral symmetry is turned on.
 Leave Link  301 at Tue Apr 20 10:36:08 2021, MaxMem= 12079595520 cpu:               7.5 elap:               0.2
 (Enter /s/ls4/groups/g0130/bin/g16/l302.exe)
 NPDir=0 NMtPBC=     1 NCelOv=     1 NCel=       1 NClECP=     1 NCelD=      1
         NCelK=      1 NCelE2=     1 NClLst=     1 CellRange=     0.0.
 One-electron integrals computed using PRISM.
 One-electron integral symmetry used in STVInt
   1 Symmetry operations used in ECPInt.
 ECPInt:  NShTT=  432915 NPrTT= 1004658 LenC2=  337054 LenP2D=  571000.
 LDataN:  DoStor=T MaxTD1= 8 Len=  415
 Number of processors reduced to  32 by ecpmxn.
 NBasis=  2970 RedAO= T EigKep=  1.31D-06  NBF=  2970
 NBsUse=  2968 1.00D-06 EigRej=  9.50D-07 NBFU=  2968
 Precomputing XC quadrature grid using
 IXCGrd= 4 IRadAn=           5 IRanWt=          -1 IRanGd=           0 AccXCQ= 0.00D+00.
 Generated NRdTot=       0 NPtTot=           0 NUsed=           0 NTot=          32
 NSgBfM=  3510  3510  3510  3510  3510 MxSgAt=    72 MxSgA2=    72.
 Leave Link  302 at Tue Apr 20 10:36:44 2021, MaxMem= 12079595520 cpu:            1706.7 elap:              35.7
 (Enter /s/ls4/groups/g0130/bin/g16/l303.exe)
 DipDrv:  MaxL=1.
 Leave Link  303 at Tue Apr 20 10:38:48 2021, MaxMem= 12079595520 cpu:            5796.6 elap:             123.5
 (Enter /s/ls4/groups/g0130/bin/g16/l401.exe)
 SCF N**3 symmetry information disabled.
 ExpMin= 7.60D-02 ExpMax= 1.17D+05 ExpMxC= 1.13D+03 IAcc=3 IRadAn=         5 AccDes= 0.00D+00
 Harris functional with IExCor= 1009 and IRadAn=       5 diagonalized for initial guess.
 HarFok:  IExCor= 1009 AccDes= 0.00D+00 IRadAn=         5 IDoV= 1 UseB2=F ITyADJ=14
 ICtDFT=  3500011 ScaDFX=  1.000000  1.000000  1.000000  1.000000
 FoFCou: FMM=F IPFlag=           0 FMFlag=      100000 FMFlg1=        2001
         NFxFlg=           0 DoJE=T BraDBF=F KetDBF=T FulRan=T
         wScrn=  0.000000 ICntrl=       500 IOpCl=  0 I1Cent=   200000004 NGrid=           0
         NMat0=    1 NMatS0=      1 NMatT0=    0 NMatD0=    1 NMtDS0=    0 NMtDT0=    0
 Petite list used in FoFCou.
 Harris En= -1316.31844322233    
 JPrj=0 DoOrth=F DoCkMO=F.
 Leave Link  401 at Tue Apr 20 10:39:40 2021, MaxMem= 12079595520 cpu:            2495.1 elap:              52.1
 (Enter /s/ls4/groups/g0130/bin/g16/l502.exe)
 Integral symmetry usage will be decided dynamically.
 Closed shell SCF:
 Using DIIS extrapolation, IDIIS=  1040.
 NGot= 12079595520 LenX= 12053039396 LenY= 12039858866
 Requested convergence on RMS density matrix=1.00D-08 within 128 cycles.
 Requested convergence on MAX density matrix=1.00D-06.
 Requested convergence on             energy=1.00D-06.
 No special actions if energy rises.
 Fock matrices will be formed incrementally for  20 cycles.
 Integral accuracy reduced to 1.0D-05 until final iterations.

 Cycle   1  Pass 0  IDiag  1:
 FoFJK:  IHMeth= 1 ICntrl=       0 DoSepK=F KAlg= 0 I1Cent=           0 FoldK=F
 IRaf= 730000000 NMat=       1 IRICut=       1 DoRegI=T DoRafI=F ISym2E= 0 IDoP0=0 IntGTp=1.
 FoFCou: FMM=T IPFlag=           0 FMFlag=      100000 FMFlg1=        2001
         NFxFlg=           0 DoJE=F BraDBF=F KetDBF=F FulRan=T
         wScrn=  0.000000 ICntrl=         0 IOpCl=  0 I1Cent=           0 NGrid=           0
         NMat0=    1 NMatS0=      1 NMatT0=    0 NMatD0=    1 NMtDS0=    0 NMtDT0=    0
 Symmetry not used in FoFCou.
 FMM levels:  10  Number of levels for PrismC:   9
 E= -1315.73102311931    
 DIIS: error= 1.07D-02 at cycle   1 NSaved=   1.
 NSaved= 1 IEnMin= 1 EnMin= -1315.73102311931     IErMin= 1 ErrMin= 1.07D-02
 ErrMax= 1.07D-02  0.00D+00 EMaxC= 1.00D-01 BMatC= 1.76D+00 BMatP= 1.76D+00
 IDIUse=3 WtCom= 8.93D-01 WtEn= 1.07D-01
 Coeff-Com:  0.100D+01
 Coeff-En:   0.100D+01
 Coeff:      0.100D+01
 Gap=     0.220 Goal=   None    Shift=    0.000
 GapD=    0.220 DampG=1.000 DampE=0.500 DampFc=0.5000 IDamp=-1.
 Damping current iteration by 5.00D-01
 RMSDP=1.23D+02 MaxDP=6.27D+04              OVMax= 9.99D-01

 Problem detected with inexpensive integrals.
 Switching to full accuracy and repeating last cycle.
 Cycle   2  Pass 1  IDiag  1:
 E= -1315.73111515885     Delta-E=       -0.000092039534 Rises=F Damp=F
 DIIS: error= 1.07D-02 at cycle   1 NSaved=   1.
 NSaved= 1 IEnMin= 1 EnMin= -1315.73111515885     IErMin= 1 ErrMin= 1.07D-02
 ErrMax= 1.07D-02  0.00D+00 EMaxC= 1.00D-01 BMatC= 1.73D+00 BMatP= 1.73D+00
 IDIUse=3 WtCom= 8.93D-01 WtEn= 1.07D-01
 Coeff-Com:  0.100D+01
 Coeff-En:   0.100D+01
 Coeff:      0.100D+01
 Gap=     0.220 Goal=   None    Shift=    0.000
 GapD=    0.220 DampG=1.000 DampE=0.500 DampFc=0.5000 IDamp=-1.
 Damping current iteration by 5.00D-01
 RMSDP=1.39D-03 MaxDP=2.41D-01 DE=-9.20D-05 OVMax= 1.65D-01

 Cycle   3  Pass 1  IDiag  1:
 RMSU=  6.66D-04    CP:  9.06D-01
 E= -1316.25489813006     Delta-E=       -0.523782971210 Rises=F Damp=T
 DIIS: error= 5.36D-03 at cycle   2 NSaved=   2.
 NSaved= 2 IEnMin= 2 EnMin= -1316.25489813006     IErMin= 2 ErrMin= 5.36D-03
 ErrMax= 5.36D-03  0.00D+00 EMaxC= 1.00D-01 BMatC= 2.19D-01 BMatP= 1.73D+00
 IDIUse=3 WtCom= 9.46D-01 WtEn= 5.36D-02
 Coeff-Com: -0.146D+00 0.115D+01
 Coeff-En:   0.000D+00 0.100D+01
 Coeff:     -0.138D+00 0.114D+01
 Gap=     0.318 Goal=   None    Shift=    0.000
 GapD=    0.318 DampG=1.000 DampE=1.000 DampFc=1.0000 IDamp=-1.
 RMSDP=7.89D-04 MaxDP=3.05D-01 DE=-5.24D-01 OVMax= 1.19D-01

 Cycle   4  Pass 1  IDiag  1:
 RMSU=  6.57D-04    CP:  7.55D-01  1.46D+00
 E= -1316.70733105744     Delta-E=       -0.452432927379 Rises=F Damp=F
 DIIS: error= 3.76D-03 at cycle   3 NSaved=   3.
 NSaved= 3 IEnMin= 3 EnMin= -1316.70733105744     IErMin= 3 ErrMin= 3.76D-03
 ErrMax= 3.76D-03  0.00D+00 EMaxC= 1.00D-01 BMatC= 1.11D-01 BMatP= 2.19D-01
 IDIUse=3 WtCom= 9.62D-01 WtEn= 3.76D-02
 Coeff-Com: -0.157D+00 0.522D+00 0.634D+00
 Coeff-En:   0.000D+00 0.000D+00 0.100D+01
 Coeff:     -0.151D+00 0.503D+00 0.648D+00
 Gap=     0.247 Goal=   None    Shift=    0.000
 RMSDP=1.68D-04 MaxDP=5.06D-02 DE=-4.52D-01 OVMax= 6.49D-02

 Cycle   5  Pass 1  IDiag  1:
 RMSU=  1.59D-04    CP:  7.44D-01  1.46D+00  9.25D-01
 E= -1316.76403997229     Delta-E=       -0.056708914854 Rises=F Damp=F
 DIIS: error= 1.99D-03 at cycle   4 NSaved=   4.
 NSaved= 4 IEnMin= 4 EnMin= -1316.76403997229     IErMin= 4 ErrMin= 1.99D-03
 ErrMax= 1.99D-03  0.00D+00 EMaxC= 1.00D-01 BMatC= 3.48D-02 BMatP= 1.11D-01
 IDIUse=3 WtCom= 9.80D-01 WtEn= 1.99D-02
 Coeff-Com: -0.683D-01 0.155D+00 0.399D+00 0.514D+00
 Coeff-En:   0.000D+00 0.000D+00 0.262D+00 0.738D+00
 Coeff:     -0.669D-01 0.152D+00 0.397D+00 0.518D+00
 Gap=     0.237 Goal=   None    Shift=    0.000
 RMSDP=6.99D-05 MaxDP=1.12D-02 DE=-5.67D-02 OVMax= 3.22D-02

 Cycle   6  Pass 1  IDiag  1:
 RMSU=  4.96D-05    CP:  7.40D-01  1.46D+00  9.22D-01  6.96D-01
 E= -1316.79094509773     Delta-E=       -0.026905125438 Rises=F Damp=F
 DIIS: error= 3.30D-04 at cycle   5 NSaved=   5.
 NSaved= 5 IEnMin= 5 EnMin= -1316.79094509773     IErMin= 5 ErrMin= 3.30D-04
 ErrMax= 3.30D-04  0.00D+00 EMaxC= 1.00D-01 BMatC= 7.70D-04 BMatP= 3.48D-02
 IDIUse=3 WtCom= 9.97D-01 WtEn= 3.30D-03
 Coeff-Com: -0.246D-01 0.528D-01 0.161D+00 0.245D+00 0.566D+00
 Coeff-En:   0.000D+00 0.000D+00 0.000D+00 0.000D+00 0.100D+01
 Coeff:     -0.245D-01 0.526D-01 0.160D+00 0.244D+00 0.568D+00
 Gap=     0.238 Goal=   None    Shift=    0.000
 RMSDP=2.03D-05 MaxDP=6.58D-03 DE=-2.69D-02 OVMax= 9.45D-03

 Cycle   7  Pass 1  IDiag  1:
 RMSU=  1.84D-05    CP:  7.37D-01  1.45D+00  9.18D-01  7.17D-01  1.02D+00
 E= -1316.79151277656     Delta-E=       -0.000567678831 Rises=F Damp=F
 DIIS: error= 1.42D-04 at cycle   6 NSaved=   6.
 NSaved= 6 IEnMin= 6 EnMin= -1316.79151277656     IErMin= 6 ErrMin= 1.42D-04
 ErrMax= 1.42D-04  0.00D+00 EMaxC= 1.00D-01 BMatC= 1.42D-04 BMatP= 7.70D-04
 IDIUse=3 WtCom= 9.99D-01 WtEn= 1.42D-03
 Coeff-Com: -0.273D-02 0.544D-02 0.277D-01 0.570D-01 0.326D+00 0.587D+00
 Coeff-En:   0.000D+00 0.000D+00 0.000D+00 0.000D+00 0.130D+00 0.870D+00
 Coeff:     -0.273D-02 0.544D-02 0.276D-01 0.570D-01 0.326D+00 0.587D+00
 Gap=     0.238 Goal=   None    Shift=    0.000
 RMSDP=9.05D-06 MaxDP=2.96D-03 DE=-5.68D-04 OVMax= 3.45D-03

 Cycle   8  Pass 1  IDiag  1:
 RMSU=  7.57D-06    CP:  7.36D-01  1.45D+00  9.16D-01  7.19D-01  1.10D+00
                    CP:  1.05D+00
 E= -1316.79162911498     Delta-E=       -0.000116338420 Rises=F Damp=F
 DIIS: error= 4.31D-05 at cycle   7 NSaved=   7.
 NSaved= 7 IEnMin= 7 EnMin= -1316.79162911498     IErMin= 7 ErrMin= 4.31D-05
 ErrMax= 4.31D-05  0.00D+00 EMaxC= 1.00D-01 BMatC= 1.50D-05 BMatP= 1.42D-04
 IDIUse=1 WtCom= 1.00D+00 WtEn= 0.00D+00
 Coeff-Com:  0.179D-02-0.404D-02-0.538D-02-0.964D-03 0.104D+00 0.308D+00
 Coeff-Com:  0.597D+00
 Coeff:      0.179D-02-0.404D-02-0.538D-02-0.964D-03 0.104D+00 0.308D+00
 Coeff:      0.597D+00
 Gap=     0.238 Goal=   None    Shift=    0.000
 RMSDP=3.00D-06 MaxDP=1.43D-03 DE=-1.16D-04 OVMax= 9.55D-04

 Cycle   9  Pass 1  IDiag  1:
 RMSU=  1.74D-06    CP:  7.36D-01  1.45D+00  9.16D-01  7.22D-01  1.13D+00
                    CP:  1.13D+00  9.80D-01
 E= -1316.79164123448     Delta-E=       -0.000012119503 Rises=F Damp=F
 DIIS: error= 1.32D-05 at cycle   8 NSaved=   8.
 NSaved= 8 IEnMin= 8 EnMin= -1316.79164123448     IErMin= 8 ErrMin= 1.32D-05
 ErrMax= 1.32D-05  0.00D+00 EMaxC= 1.00D-01 BMatC= 1.28D-06 BMatP= 1.50D-05
 IDIUse=1 WtCom= 1.00D+00 WtEn= 0.00D+00
 Coeff-Com:  0.110D-02-0.239D-02-0.584D-02-0.927D-02-0.383D-02 0.411D-01
 Coeff-Com:  0.239D+00 0.740D+00
 Coeff:      0.110D-02-0.239D-02-0.584D-02-0.927D-02-0.383D-02 0.411D-01
 Coeff:      0.239D+00 0.740D+00
 Gap=     0.238 Goal=   None    Shift=    0.000
 RMSDP=8.05D-07 MaxDP=2.01D-04 DE=-1.21D-05 OVMax= 3.39D-04

 Cycle  10  Pass 1  IDiag  1:
 RMSU=  6.90D-07    CP:  7.36D-01  1.45D+00  9.17D-01  7.22D-01  1.13D+00
                    CP:  1.14D+00  1.00D+00  1.09D+00
 E= -1316.79164239905     Delta-E=       -0.000001164563 Rises=F Damp=F
 DIIS: error= 5.92D-06 at cycle   9 NSaved=   9.
 NSaved= 9 IEnMin= 9 EnMin= -1316.79164239905     IErMin= 9 ErrMin= 5.92D-06
 ErrMax= 5.92D-06  0.00D+00 EMaxC= 1.00D-01 BMatC= 2.28D-07 BMatP= 1.28D-06
 IDIUse=1 WtCom= 1.00D+00 WtEn= 0.00D+00
 Coeff-Com:  0.316D-03-0.705D-03-0.201D-02-0.425D-02-0.988D-02-0.577D-02
 Coeff-Com:  0.537D-01 0.343D+00 0.626D+00
 Coeff:      0.316D-03-0.705D-03-0.201D-02-0.425D-02-0.988D-02-0.577D-02
 Coeff:      0.537D-01 0.343D+00 0.626D+00
 Gap=     0.238 Goal=   None    Shift=    0.000
 RMSDP=3.83D-07 MaxDP=1.74D-04 DE=-1.16D-06 OVMax= 1.09D-04

 Cycle  11  Pass 1  IDiag  1:
 RMSU=  2.95D-07    CP:  7.36D-01  1.45D+00  9.17D-01  7.21D-01  1.13D+00
                    CP:  1.14D+00  9.95D-01  1.16D+00  1.16D+00
 E= -1316.79164259693     Delta-E=       -0.000000197885 Rises=F Damp=F
 DIIS: error= 1.46D-06 at cycle  10 NSaved=  10.
 NSaved=10 IEnMin=10 EnMin= -1316.79164259693     IErMin=10 ErrMin= 1.46D-06
 ErrMax= 1.46D-06  0.00D+00 EMaxC= 1.00D-01 BMatC= 2.85D-08 BMatP= 2.28D-07
 IDIUse=1 WtCom= 1.00D+00 WtEn= 0.00D+00
 Coeff-Com: -0.100D-03 0.199D-03 0.425D-03 0.115D-03-0.285D-02-0.942D-02
 Coeff-Com: -0.303D-01-0.256D-01 0.245D+00 0.823D+00
 Coeff:     -0.100D-03 0.199D-03 0.425D-03 0.115D-03-0.285D-02-0.942D-02
 Coeff:     -0.303D-01-0.256D-01 0.245D+00 0.823D+00
 Gap=     0.238 Goal=   None    Shift=    0.000
 RMSDP=2.24D-07 MaxDP=1.34D-04 DE=-1.98D-07 OVMax= 7.47D-05

 Cycle  12  Pass 1  IDiag  1:
 RMSU=  1.12D-07    CP:  7.36D-01  1.45D+00  9.17D-01  7.21D-01  1.13D+00
                    CP:  1.14D+00  9.88D-01  1.19D+00  1.33D+00  1.24D+00
 E= -1316.79164263076     Delta-E=       -0.000000033830 Rises=F Damp=F
 DIIS: error= 7.64D-07 at cycle  11 NSaved=  11.
 NSaved=11 IEnMin=11 EnMin= -1316.79164263076     IErMin=11 ErrMin= 7.64D-07
 ErrMax= 7.64D-07  0.00D+00 EMaxC= 1.00D-01 BMatC= 5.06D-09 BMatP= 2.85D-08
 IDIUse=1 WtCom= 1.00D+00 WtEn= 0.00D+00
 Coeff-Com: -0.714D-04 0.150D-03 0.363D-03 0.396D-03-0.498D-03-0.385D-02
 Coeff-Com: -0.193D-01-0.449D-01 0.480D-01 0.396D+00 0.624D+00
 Coeff:     -0.714D-04 0.150D-03 0.363D-03 0.396D-03-0.498D-03-0.385D-02
 Coeff:     -0.193D-01-0.449D-01 0.480D-01 0.396D+00 0.624D+00
 Gap=     0.238 Goal=   None    Shift=    0.000
 RMSDP=5.40D-08 MaxDP=3.13D-05 DE=-3.38D-08 OVMax= 1.86D-05

 Cycle  13  Pass 1  IDiag  1:
 RMSU=  4.09D-08    CP:  7.36D-01  1.45D+00  9.17D-01  7.21D-01  1.13D+00
                    CP:  1.14D+00  9.88D-01  1.20D+00  1.36D+00  1.31D+00
                    CP:  9.57D-01
 E= -1316.79164263586     Delta-E=       -0.000000005100 Rises=F Damp=F
 DIIS: error= 2.79D-07 at cycle  12 NSaved=  12.
 NSaved=12 IEnMin=12 EnMin= -1316.79164263586     IErMin=12 ErrMin= 2.79D-07
 ErrMax= 2.79D-07  0.00D+00 EMaxC= 1.00D-01 BMatC= 5.51D-10 BMatP= 5.06D-09
 IDIUse=1 WtCom= 1.00D+00 WtEn= 0.00D+00
 Coeff-Com: -0.932D-05 0.234D-04 0.673D-04 0.953D-04 0.806D-04-0.213D-03
 Coeff-Com: -0.322D-02-0.125D-01-0.183D-01 0.381D-01 0.256D+00 0.740D+00
 Coeff:     -0.932D-05 0.234D-04 0.673D-04 0.953D-04 0.806D-04-0.213D-03
 Coeff:     -0.322D-02-0.125D-01-0.183D-01 0.381D-01 0.256D+00 0.740D+00
 Gap=     0.238 Goal=   None    Shift=    0.000
 RMSDP=2.70D-08 MaxDP=1.45D-05 DE=-5.10D-09 OVMax= 6.88D-06

 Cycle  14  Pass 1  IDiag  1:
 RMSU=  1.87D-08    CP:  7.36D-01  1.45D+00  9.17D-01  7.21D-01  1.13D+00
                    CP:  1.14D+00  9.89D-01  1.20D+00  1.36D+00  1.32D+00
                    CP:  9.80D-01  1.12D+00
 E= -1316.79164263636     Delta-E=       -0.000000000499 Rises=F Damp=F
 DIIS: error= 9.66D-08 at cycle  13 NSaved=  13.
 NSaved=13 IEnMin=13 EnMin= -1316.79164263636     IErMin=13 ErrMin= 9.66D-08
 ErrMax= 9.66D-08  0.00D+00 EMaxC= 1.00D-01 BMatC= 8.37D-11 BMatP= 5.51D-10
 IDIUse=1 WtCom= 1.00D+00 WtEn= 0.00D+00
 Coeff-Com:  0.669D-05-0.123D-04-0.169D-04-0.158D-04 0.103D-03 0.526D-03
 Coeff-Com:  0.127D-02 0.121D-02-0.150D-01-0.389D-01 0.258D-01 0.307D+00
 Coeff-Com:  0.718D+00
 Coeff:      0.669D-05-0.123D-04-0.169D-04-0.158D-04 0.103D-03 0.526D-03
 Coeff:      0.127D-02 0.121D-02-0.150D-01-0.389D-01 0.258D-01 0.307D+00
 Coeff:      0.718D+00
 Gap=     0.238 Goal=   None    Shift=    0.000
 RMSDP=9.60D-09 MaxDP=4.98D-06 DE=-4.99D-10 OVMax= 2.70D-06

 Cycle  15  Pass 1  IDiag  1:
 RMSU=  6.29D-09    CP:  7.36D-01  1.45D+00  9.17D-01  7.21D-01  1.13D+00
                    CP:  1.14D+00  9.88D-01  1.20D+00  1.36D+00  1.32D+00
                    CP:  9.82D-01  1.19D+00  1.21D+00
 E= -1316.79164263656     Delta-E=       -0.000000000195 Rises=F Damp=F
 DIIS: error= 2.66D-08 at cycle  14 NSaved=  14.
 NSaved=14 IEnMin=14 EnMin= -1316.79164263656     IErMin=14 ErrMin= 2.66D-08
 ErrMax= 2.66D-08  0.00D+00 EMaxC= 1.00D-01 BMatC= 7.69D-12 BMatP= 8.37D-11
 IDIUse=1 WtCom= 1.00D+00 WtEn= 0.00D+00
 Coeff-Com:  0.237D-05-0.502D-05-0.627D-05-0.819D-05 0.263D-04 0.210D-03
 Coeff-Com:  0.646D-03 0.165D-02-0.264D-02-0.168D-01-0.245D-01-0.575D-02
 Coeff-Com:  0.239D+00 0.808D+00
 Coeff:      0.237D-05-0.502D-05-0.627D-05-0.819D-05 0.263D-04 0.210D-03
 Coeff:      0.646D-03 0.165D-02-0.264D-02-0.168D-01-0.245D-01-0.575D-02
 Coeff:      0.239D+00 0.808D+00
 Gap=     0.238 Goal=   None    Shift=    0.000
 RMSDP=3.19D-09 MaxDP=1.64D-06 DE=-1.95D-10 OVMax= 1.08D-06

 Cycle  16  Pass 1  IDiag  1:
 RMSU=  1.86D-09    CP:  7.36D-01  1.45D+00  9.17D-01  7.21D-01  1.13D+00
                    CP:  1.14D+00  9.88D-01  1.20D+00  1.36D+00  1.32D+00
                    CP:  9.86D-01  1.22D+00  1.26D+00  9.61D-01
 E= -1316.79164263664     Delta-E=       -0.000000000089 Rises=F Damp=F
 DIIS: error= 1.31D-08 at cycle  15 NSaved=  15.
 NSaved=15 IEnMin=15 EnMin= -1316.79164263664     IErMin=15 ErrMin= 1.31D-08
 ErrMax= 1.31D-08  0.00D+00 EMaxC= 1.00D-01 BMatC= 9.85D-13 BMatP= 7.69D-12
 IDIUse=1 WtCom= 1.00D+00 WtEn= 0.00D+00
 Coeff-Com:  0.564D-06-0.136D-05-0.107D-05-0.131D-05 0.796D-05 0.710D-04
 Coeff-Com:  0.201D-03 0.630D-03-0.260D-03-0.493D-02-0.121D-01-0.224D-01
 Coeff-Com:  0.613D-01 0.368D+00 0.609D+00
 Coeff:      0.564D-06-0.136D-05-0.107D-05-0.131D-05 0.796D-05 0.710D-04
 Coeff:      0.201D-03 0.630D-03-0.260D-03-0.493D-02-0.121D-01-0.224D-01
 Coeff:      0.613D-01 0.368D+00 0.609D+00
 Gap=     0.238 Goal=   None    Shift=    0.000
 RMSDP=7.96D-10 MaxDP=2.90D-07 DE=-8.91D-11 OVMax= 2.66D-07

 SCF Done:  E(RM062X) =  -1316.79164264     A.U. after   16 cycles
            NFock= 16  Conv=0.80D-09     -V/T= 2.0052
 KE= 1.310041166288D+03 PE=-1.017141143886D+04 EE= 3.990466703461D+03
 Leave Link  502 at Tue Apr 20 18:15:22 2021, MaxMem= 12079595520 cpu:         1301091.4 elap:           27341.8
 (Enter /s/ls4/groups/g0130/bin/g16/l601.exe)
 Copying SCF densities to generalized density rwf, IOpCl= 0 IROHF=0.

 **********************************************************************

            Population analysis using the SCF density.

 **********************************************************************

 Orbital symmetries:
       Occupied  (A) (A) (A) (A) (A) (A) (A) (A) (A) (A) (A) (A)
                 (A) (A) (A) (A) (A) (A) (A) (A) (A) (A) (A) (A)
                 (A) (A) (A) (A) (A) (A) (A) (A) (A) (A) (A) (A)
                 (A) (A) (A) (A) (A) (A) (A) (A) (A) (A) (A) (A)
                 (A) (A) (A) (A) (A) (A) (A) (A) (A) (A) (A) (A)
                 (A) (A) (A) (A) (A) (A) (A) (A) (A) (A) (A) (A)
                 (A) (A) (A) (A) (A) (A) (A) (A) (A) (A) (A) (A)
                 (A) (A) (A) (A) (A) (A) (A) (A) (A) (A) (A) (A)
                 (A) (A) (A) (A) (A) (A) (A) (A) (A) (A) (A) (A)
                 (A) (A) (A) (A) (A) (A) (A)
       Virtual   (A) (A) (A) (A) (A) (A) (A) (A) (A) (A) (A) (A)
                 (A) (A) (A) (A) (A) (A) (A) (A) (A) (A) (A) (A)
                 (A) (A) (A) (A) (A) (A) (A) (A) (A) (A) (A) (A)
                 (A) (A) (A) (A) (A) (A) (A) (A) (A) (A) (A) (A)
                 (A) (A) (A) (A) (A) (A) (A) (A) (A) (A) (A) (A)
                 (A) (A) (A) (A) (A) (A) (A) (A) (A) (A) (A) (A)
                 (A) (A) (A) (A) (A) (A) (A) (A) (A) (A) (A) (A)
                 (A) (A) (A) (A) (A) (A) (A) (A) (A) (A) (A) (A)
                 (A) (A) (A) (A) (A) (A) (A) (A) (A) (A) (A) (A)
                 (A) (A) (A) (A) (A) (A) (A) (A) (A) (A) (A) (A)
                 (A) (A) (A) (A) (A) (A) (A) (A) (A) (A) (A) (A)
                 (A) (A) (A) (A) (A) (A) (A) (A) (A) (A) (A) (A)
                 (A) (A) (A) (A) (A) (A) (A) (A) (A) (A) (A) (A)
                 (A) (A) (A) (A) (A) (A) (A) (A) (A) (A) (A) (A)
                 (A) (A) (A) (A) (A) (A) (A) (A) (A) (A) (A) (A)
                 (A) (A) (A) (A) (A) (A) (A) (A) (A) (A) (A) (A)
                 (A) (A) (A) (A) (A) (A) (A) (A) (A) (A) (A) (A)
                 (A) (A) (A) (A) (A) (A) (A) (A) (A) (A) (A) (A)
                 (A) (A) (A) (A) (A) (A) (A) (A) (A) (A) (A) (A)
                 (A) (A) (A) (A) (A) (A) (A) (A) (A) (A) (A) (A)
                 (A) (A) (A) (A) (A) (A) (A) (A) (A) (A) (A) (A)
                 (A) (A) (A) (A) (A) (A) (A) (A) (A) (A) (A) (A)
                 (A) (A) (A) (A) (A) (A) (A) (A) (A) (A) (A) (A)
                 (A) (A) (A) (A) (A) (A) (A) (A) (A) (A) (A) (A)
                 (A) (A) (A) (A) (A) (A) (A) (A) (A) (A) (A) (A)
                 (A) (A) (A) (A) (A) (A) (A) (A) (A) (A) (A) (A)
                 (A) (A) (A) (A) (A) (A) (A) (A) (A) (A) (A) (A)
                 (A) (A) (A) (A) (A) (A) (A) (A) (A) (A) (A) (A)
                 (A) (A) (A) (A) (A) (A) (A) (A) (A) (A) (A) (A)
                 (A) (A) (A) (A) (A) (A) (A) (A) (A) (A) (A) (A)
                 (A) (A) (A) (A) (A) (A) (A) (A) (A) (A) (A) (A)
                 (A) (A) (A) (A) (A) (A) (A) (A) (A) (A) (A) (A)
                 (A) (A) (A) (A) (A) (A) (A) (A) (A) (A) (A) (A)
                 (A) (A) (A) (A) (A) (A) (A) (A) (A) (A) (A) (A)
                 (A) (A) (A) (A) (A) (A) (A) (A) (A) (A) (A) (A)
                 (A) (A) (A) (A) (A) (A) (A) (A) (A) (A) (A) (A)
                 (A) (A) (A) (A) (A) (A) (A) (A) (A) (A) (A) (A)
                 (A) (A) (A) (A) (A) (A) (A) (A) (A) (A) (A) (A)
                 (A) (A) (A) (A) (A) (A) (A) (A) (A) (A) (A) (A)
                 (A) (A) (A) (A) (A) (A) (A) (A) (A) (A) (A) (A)
                 (A) (A) (A) (A) (A) (A) (A) (A) (A) (A) (A) (A)
                 (A) (A) (A) (A) (A) (A) (A) (A) (A) (A) (A) (A)
                 (A) (A) (A) (A) (A) (A) (A) (A) (A) (A) (A) (A)
                 (A) (A) (A) (A) (A) (A) (A) (A) (A) (A) (A) (A)
                 (A) (A) (A) (A) (A) (A) (A) (A) (A) (A) (A) (A)
                 (A) (A) (A) (A) (A) (A) (A) (A) (A) (A) (A) (A)
                 (A) (A) (A) (A) (A) (A) (A) (A) (A) (A) (A) (A)
                 (A) (A) (A) (A) (A) (A) (A) (A) (A) (A) (A) (A)
                 (A) (A) (A) (A) (A) (A) (A) (A) (A) (A) (A) (A)
                 (A) (A) (A) (A) (A) (A) (A) (A) (A) (A) (A) (A)
                 (A) (A) (A) (A) (A) (A) (A) (A) (A) (A) (A) (A)
                 (A) (A) (A) (A) (A) (A) (A) (A) (A) (A) (A) (A)
                 (A) (A) (A) (A) (A) (A) (A) (A) (A) (A) (A) (A)
                 (A) (A) (A) (A) (A) (A) (A) (A) (A) (A) (A) (A)
                 (A) (A) (A) (A) (A) (A) (A) (A) (A) (A) (A) (A)
                 (A) (A) (A) (A) (A) (A) (A) (A) (A) (A) (A) (A)
                 (A) (A) (A) (A) (A) (A) (A) (A) (A) (A) (A) (A)
                 (A) (A) (A) (A) (A) (A) (A) (A) (A) (A) (A) (A)
                 (A) (A) (A) (A) (A) (A) (A) (A) (A) (A) (A) (A)
                 (A) (A) (A) (A) (A) (A) (A) (A) (A) (A) (A) (A)
                 (A) (A) (A) (A) (A) (A) (A) (A) (A) (A) (A) (A)
                 (A) (A) (A) (A) (A) (A) (A) (A) (A) (A) (A) (A)
                 (A) (A) (A) (A) (A) (A) (A) (A) (A) (A) (A) (A)
                 (A) (A) (A) (A) (A) (A) (A) (A) (A) (A) (A) (A)
                 (A) (A) (A) (A) (A) (A) (A) (A) (A) (A) (A) (A)
                 (A) (A) (A) (A) (A) (A) (A) (A) (A) (A) (A) (A)
                 (A) (A) (A) (A) (A) (A) (A) (A) (A) (A) (A) (A)
                 (A) (A) (A) (A) (A) (A) (A) (A) (A) (A) (A) (A)
                 (A) (A) (A) (A) (A) (A) (A) (A) (A) (A) (A) (A)
                 (A) (A) (A) (A) (A) (A) (A) (A) (A) (A) (A) (A)
                 (A) (A) (A) (A) (A) (A) (A) (A) (A) (A) (A) (A)
                 (A) (A) (A) (A) (A) (A) (A) (A) (A) (A) (A) (A)
                 (A) (A) (A) (A) (A) (A) (A) (A) (A) (A) (A) (A)
                 (A) (A) (A) (A) (A) (A) (A) (A) (A) (A) (A) (A)
                 (A) (A) (A) (A) (A) (A) (A) (A) (A) (A) (A) (A)
                 (A) (A) (A) (A) (A) (A) (A) (A) (A) (A) (A) (A)
                 (A) (A) (A) (A) (A) (A) (A) (A) (A) (A) (A) (A)
                 (A) (A) (A) (A) (A) (A) (A) (A) (A) (A) (A) (A)
                 (A) (A) (A) (A) (A) (A) (A) (A) (A) (A) (A) (A)
                 (A) (A) (A) (A) (A) (A) (A) (A) (A) (A) (A) (A)
                 (A) (A) (A) (A) (A) (A) (A) (A) (A) (A) (A) (A)
                 (A) (A) (A) (A) (A) (A) (A) (A) (A) (A) (A) (A)
                 (A) (A) (A) (A) (A) (A) (A) (A) (A) (A) (A) (A)
                 (A) (A) (A) (A) (A) (A) (A) (A) (A) (A) (A) (A)
                 (A) (A) (A) (A) (A) (A) (A) (A) (A) (A) (A) (A)
                 (A) (A) (A) (A) (A) (A) (A) (A) (A) (A) (A) (A)
                 (A) (A) (A) (A) (A) (A) (A) (A) (A) (A) (A) (A)
                 (A) (A) (A) (A) (A) (A) (A) (A) (A) (A) (A) (A)
                 (A) (A) (A) (A) (A) (A) (A) (A) (A) (A) (A) (A)
                 (A) (A) (A) (A) (A) (A) (A) (A) (A) (A) (A) (A)
                 (A) (A) (A) (A) (A) (A) (A) (A) (A) (A) (A) (A)
                 (A) (A) (A) (A) (A) (A) (A) (A) (A) (A) (A) (A)
                 (A) (A) (A) (A) (A) (A) (A) (A) (A) (A) (A) (A)
                 (A) (A) (A) (A) (A) (A) (A) (A) (A) (A) (A) (A)
                 (A) (A) (A) (A) (A) (A) (A) (A) (A) (A) (A) (A)
                 (A) (A) (A) (A) (A) (A) (A) (A) (A) (A) (A) (A)
                 (A) (A) (A) (A) (A) (A) (A) (A) (A) (A) (A) (A)
                 (A) (A) (A) (A) (A) (A) (A) (A) (A) (A) (A) (A)
                 (A) (A) (A) (A) (A) (A) (A) (A) (A) (A) (A) (A)
                 (A) (A) (A) (A) (A) (A) (A) (A) (A) (A) (A) (A)
                 (A) (A) (A) (A) (A) (A) (A) (A) (A) (A) (A) (A)
                 (A) (A) (A) (A) (A) (A) (A) (A) (A) (A) (A) (A)
                 (A) (A) (A) (A) (A) (A) (A) (A) (A) (A) (A) (A)
                 (A) (A) (A) (A) (A) (A) (A) (A) (A) (A) (A) (A)
                 (A) (A) (A) (A) (A) (A) (A) (A) (A) (A) (A) (A)
                 (A) (A) (A) (A) (A) (A) (A) (A) (A) (A) (A) (A)
                 (A) (A) (A) (A) (A) (A) (A) (A) (A) (A) (A) (A)
                 (A) (A) (A) (A) (A) (A) (A) (A) (A) (A) (A) (A)
                 (A) (A) (A) (A) (A) (A) (A) (A) (A) (A) (A) (A)
                 (A) (A) (A) (A) (A) (A) (A) (A) (A) (A) (A) (A)
                 (A) (A) (A) (A) (A) (A) (A) (A) (A) (A) (A) (A)
                 (A) (A) (A) (A) (A) (A) (A) (A) (A) (A) (A) (A)
                 (A) (A) (A) (A) (A) (A) (A) (A) (A) (A) (A) (A)
                 (A) (A) (A) (A) (A) (A) (A) (A) (A) (A) (A) (A)
                 (A) (A) (A) (A) (A) (A) (A) (A) (A) (A) (A) (A)
                 (A) (A) (A) (A) (A) (A) (A) (A) (A) (A) (A) (A)
                 (A) (A) (A) (A) (A) (A) (A) (A) (A) (A) (A) (A)
                 (A) (A) (A) (A) (A) (A) (A) (A) (A) (A) (A) (A)
                 (A) (A) (A) (A) (A) (A) (A) (A) (A) (A) (A) (A)
                 (A) (A) (A) (A) (A) (A) (A) (A) (A) (A) (A) (A)
                 (A) (A) (A) (A) (A) (A) (A) (A) (A) (A) (A) (A)
                 (A) (A) (A) (A) (A) (A) (A) (A) (A) (A) (A) (A)
                 (A) (A) (A) (A) (A) (A) (A) (A) (A) (A) (A) (A)
                 (A) (A) (A) (A) (A) (A) (A) (A) (A) (A) (A) (A)
                 (A) (A) (A) (A) (A) (A) (A) (A) (A) (A) (A) (A)
                 (A) (A) (A) (A) (A) (A) (A) (A) (A) (A) (A) (A)
                 (A) (A) (A) (A) (A) (A) (A) (A) (A) (A) (A) (A)
                 (A) (A) (A) (A) (A) (A) (A) (A) (A) (A) (A) (A)
                 (A) (A) (A) (A) (A) (A) (A) (A) (A) (A) (A) (A)
                 (A) (A) (A) (A) (A) (A) (A) (A) (A) (A) (A) (A)
                 (A) (A) (A) (A) (A) (A) (A) (A) (A) (A) (A) (A)
                 (A) (A) (A) (A) (A) (A) (A) (A) (A) (A) (A) (A)
                 (A) (A) (A) (A) (A) (A) (A) (A) (A) (A) (A) (A)
                 (A) (A) (A) (A) (A) (A) (A) (A) (A) (A) (A) (A)
                 (A) (A) (A) (A) (A) (A) (A) (A) (A) (A) (A) (A)
                 (A) (A) (A) (A) (A) (A) (A) (A) (A) (A) (A) (A)
                 (A) (A) (A) (A) (A) (A) (A) (A) (A) (A) (A) (A)
                 (A) (A) (A) (A) (A) (A) (A) (A) (A) (A) (A) (A)
                 (A) (A) (A) (A) (A) (A) (A) (A) (A) (A) (A) (A)
                 (A) (A) (A) (A) (A) (A) (A) (A) (A) (A) (A) (A)
                 (A) (A) (A) (A) (A) (A) (A) (A) (A) (A) (A) (A)
                 (A) (A) (A) (A) (A) (A) (A) (A) (A) (A) (A) (A)
                 (A) (A) (A) (A) (A) (A) (A) (A) (A) (A) (A) (A)
                 (A) (A) (A) (A) (A) (A) (A) (A) (A) (A) (A) (A)
                 (A) (A) (A) (A) (A) (A) (A) (A) (A) (A) (A) (A)
                 (A) (A) (A) (A) (A) (A) (A) (A) (A) (A) (A) (A)
                 (A) (A) (A) (A) (A) (A) (A) (A) (A) (A) (A) (A)
                 (A) (A) (A) (A) (A) (A) (A) (A) (A) (A) (A) (A)
                 (A) (A) (A) (A) (A) (A) (A) (A) (A) (A) (A) (A)
                 (A) (A) (A) (A) (A) (A) (A) (A) (A) (A) (A) (A)
                 (A) (A) (A) (A) (A) (A) (A) (A) (A) (A) (A) (A)
                 (A) (A) (A) (A) (A) (A) (A) (A) (A) (A) (A) (A)
                 (A) (A) (A) (A) (A) (A) (A) (A) (A) (A) (A) (A)
                 (A) (A) (A) (A) (A) (A) (A) (A) (A) (A) (A) (A)
                 (A) (A) (A) (A) (A) (A) (A) (A) (A) (A) (A) (A)
                 (A) (A) (A) (A) (A) (A) (A) (A) (A) (A) (A) (A)
                 (A) (A) (A) (A) (A) (A) (A) (A) (A) (A) (A) (A)
                 (A) (A) (A) (A) (A) (A) (A) (A) (A) (A) (A) (A)
                 (A) (A) (A) (A) (A) (A) (A) (A) (A) (A) (A) (A)
                 (A) (A) (A) (A) (A) (A) (A) (A) (A) (A) (A) (A)
                 (A) (A) (A) (A) (A) (A) (A) (A) (A) (A) (A) (A)
                 (A) (A) (A) (A) (A) (A) (A) (A) (A) (A) (A) (A)
                 (A) (A) (A) (A) (A) (A) (A) (A) (A) (A) (A) (A)
                 (A) (A) (A) (A) (A) (A) (A) (A) (A) (A) (A) (A)
                 (A) (A) (A) (A) (A) (A) (A) (A) (A) (A) (A) (A)
                 (A) (A) (A) (A) (A) (A) (A) (A) (A) (A) (A) (A)
                 (A) (A) (A) (A) (A) (A) (A) (A) (A) (A) (A) (A)
                 (A) (A) (A) (A) (A) (A) (A) (A) (A) (A) (A) (A)
                 (A) (A) (A) (A) (A) (A) (A) (A) (A) (A) (A) (A)
                 (A) (A) (A) (A) (A) (A) (A) (A) (A) (A) (A) (A)
                 (A) (A) (A) (A) (A) (A) (A) (A) (A) (A) (A) (A)
                 (A) (A) (A) (A) (A) (A) (A) (A) (A) (A) (A) (A)
                 (A) (A) (A) (A) (A) (A) (A) (A) (A) (A) (A) (A)
                 (A) (A) (A) (A) (A) (A) (A) (A) (A) (A) (A) (A)
                 (A) (A) (A) (A) (A) (A) (A) (A) (A) (A) (A) (A)
                 (A) (A) (A) (A) (A) (A) (A) (A) (A) (A) (A) (A)
                 (A) (A) (A) (A) (A) (A) (A) (A) (A) (A) (A) (A)
                 (A) (A) (A) (A) (A) (A) (A) (A) (A) (A) (A) (A)
                 (A) (A) (A) (A) (A) (A) (A) (A) (A) (A) (A) (A)
                 (A) (A) (A) (A) (A) (A) (A) (A) (A) (A) (A) (A)
                 (A) (A) (A) (A) (A) (A) (A) (A) (A) (A) (A) (A)
                 (A) (A) (A) (A) (A) (A) (A) (A) (A) (A) (A) (A)
                 (A) (A) (A) (A) (A) (A) (A) (A) (A) (A) (A) (A)
                 (A) (A) (A) (A) (A) (A) (A) (A) (A) (A) (A) (A)
                 (A) (A) (A) (A) (A) (A) (A) (A) (A) (A) (A) (A)
                 (A) (A) (A) (A) (A) (A) (A) (A) (A) (A) (A) (A)
                 (A) (A) (A) (A) (A) (A) (A) (A) (A) (A) (A) (A)
                 (A) (A) (A) (A) (A) (A) (A) (A) (A) (A) (A) (A)
                 (A) (A) (A) (A) (A) (A) (A) (A) (A) (A) (A) (A)
                 (A) (A) (A) (A) (A) (A) (A) (A) (A) (A) (A) (A)
                 (A) (A) (A) (A) (A) (A) (A) (A) (A) (A) (A) (A)
                 (A) (A) (A) (A) (A) (A) (A) (A) (A) (A) (A) (A)
                 (A) (A) (A) (A) (A) (A) (A) (A) (A) (A) (A) (A)
                 (A) (A) (A) (A) (A) (A) (A) (A) (A) (A) (A) (A)
                 (A) (A) (A) (A) (A) (A) (A) (A) (A) (A) (A) (A)
                 (A) (A) (A) (A) (A) (A) (A) (A) (A) (A) (A) (A)
                 (A) (A) (A) (A) (A) (A) (A) (A) (A) (A) (A) (A)
                 (A) (A) (A) (A) (A) (A) (A) (A) (A) (A) (A) (A)
                 (A) (A) (A) (A) (A) (A) (A) (A) (A) (A) (A) (A)
                 (A) (A) (A) (A) (A) (A) (A) (A) (A) (A) (A) (A)
                 (A) (A) (A) (A) (A) (A) (A) (A) (A) (A) (A) (A)
                 (A) (A) (A) (A) (A) (A) (A) (A) (A) (A) (A) (A)
                 (A) (A) (A) (A) (A) (A) (A) (A) (A) (A) (A) (A)
                 (A) (A) (A) (A) (A) (A) (A) (A) (A) (A) (A) (A)
                 (A) (A) (A) (A) (A) (A) (A) (A) (A) (A) (A) (A)
                 (A) (A) (A) (A) (A) (A) (A) (A) (A) (A) (A) (A)
                 (A) (A) (A) (A) (A) (A) (A) (A) (A) (A) (A) (A)
                 (A) (A) (A) (A) (A) (A) (A) (A) (A) (A) (A) (A)
                 (A) (A) (A) (A) (A) (A) (A) (A) (A) (A) (A) (A)
                 (A) (A) (A) (A) (A) (A) (A) (A) (A) (A) (A) (A)
                 (A) (A) (A) (A) (A) (A) (A) (A) (A) (A) (A) (A)
                 (A) (A) (A) (A) (A) (A) (A) (A) (A) (A) (A) (A)
                 (A) (A) (A) (A) (A) (A) (A) (A) (A) (A) (A) (A)
                 (A) (A) (A) (A) (A) (A) (A) (A) (A) (A) (A) (A)
                 (A) (A) (A) (A) (A) (A) (A) (A) (A) (A) (A) (A)
                 (A) (A) (A) (A) (A) (A) (A) (A) (A) (A) (A) (A)
                 (A) (A) (A) (A) (A) (A) (A) (A) (A) (A) (A) (A)
                 (A) (A) (A) (A) (A) (A) (A) (A) (A) (A) (A) (A)
                 (A) (A) (A) (A) (A) (A) (A) (A) (A) (A) (A) (A)
                 (A) (A) (A) (A) (A) (A) (A) (A) (A) (A) (A) (A)
                 (A) (A) (A) (A) (A) (A) (A) (A) (A) (A) (A) (A)
                 (A) (A) (A) (A) (A) (A) (A) (A) (A) (A) (A) (A)
                 (A) (A) (A) (A) (A) (A) (A) (A) (A) (A) (A) (A)
                 (A) (A) (A) (A) (A) (A) (A) (A) (A) (A) (A) (A)
                 (A) (A) (A) (A) (A) (A) (A) (A) (A) (A) (A) (A)
                 (A) (A) (A) (A) (A) (A) (A) (A) (A) (A) (A) (A)
                 (A) (A) (A) (A) (A) (A) (A) (A) (A) (A) (A) (A)
                 (A) (A) (A) (A) (A) (A) (A) (A) (A) (A) (A) (A)
                 (A) (A) (A) (A) (A) (A) (A) (A) (A) (A) (A) (A)
                 (A) (A) (A) (A) (A) (A) (A) (A) (A) (A) (A) (A)
                 (A) (A) (A) (A) (A) (A) (A) (A) (A) (A) (A) (A)
                 (A) (A) (A) (A) (A) (A) (A) (A) (A) (A) (A) (A)
                 (A) (A) (A) (A) (A) (A) (A) (A) (A) (A) (A) (A)
                 (A) (A) (A) (A) (A) (A) (A) (A) (A) (A) (A) (A)
                 (A) (A) (A) (A) (A) (A) (A) (A) (A) (A) (A) (A)
                 (A) (A) (A) (A) (A) (A) (A) (A) (A) (A) (A) (A)
                 (A) (A) (A) (A) (A) (A) (A) (A) (A) (A) (A) (A)
                 (A) (A) (A) (A) (A) (A) (A) (A) (A)
 The electronic state is 1-A.
 Alpha  occ. eigenvalues --  -19.67032 -19.66950 -19.61425 -19.61256 -10.67670
 Alpha  occ. eigenvalues --  -10.67090 -10.59644 -10.59566 -10.59103 -10.57767
 Alpha  occ. eigenvalues --  -10.57688 -10.57122 -10.56647 -10.56449 -10.56318
 Alpha  occ. eigenvalues --  -10.56230 -10.56149 -10.56121 -10.53347 -10.53180
 Alpha  occ. eigenvalues --  -10.53030 -10.52940 -10.52680 -10.52677 -10.52656
 Alpha  occ. eigenvalues --  -10.52606 -10.52413 -10.52319 -10.52283 -10.52238
 Alpha  occ. eigenvalues --   -1.22490  -1.21910  -1.13344  -1.13052  -1.02034
 Alpha  occ. eigenvalues --   -0.94499  -0.91682  -0.91533  -0.90413  -0.87444
 Alpha  occ. eigenvalues --   -0.82879  -0.82642  -0.78376  -0.78147  -0.77799
 Alpha  occ. eigenvalues --   -0.77562  -0.77393  -0.77117  -0.76706  -0.76536
 Alpha  occ. eigenvalues --   -0.74584  -0.73212  -0.70386  -0.67974  -0.66207
 Alpha  occ. eigenvalues --   -0.64767  -0.62548  -0.61657  -0.58373  -0.58068
 Alpha  occ. eigenvalues --   -0.57297  -0.56409  -0.56015  -0.55589  -0.55313
 Alpha  occ. eigenvalues --   -0.54785  -0.52895  -0.52623  -0.51945  -0.51318
 Alpha  occ. eigenvalues --   -0.51160  -0.50826  -0.50459  -0.50117  -0.49836
 Alpha  occ. eigenvalues --   -0.49477  -0.48784  -0.48496  -0.48200  -0.47337
 Alpha  occ. eigenvalues --   -0.46752  -0.46058  -0.45931  -0.45494  -0.45238
 Alpha  occ. eigenvalues --   -0.44702  -0.44535  -0.44433  -0.44177  -0.43716
 Alpha  occ. eigenvalues --   -0.43266  -0.43049  -0.42869  -0.42780  -0.42467
 Alpha  occ. eigenvalues --   -0.42119  -0.41520  -0.40912  -0.40183  -0.40042
 Alpha  occ. eigenvalues --   -0.39194  -0.39034  -0.38414  -0.38036  -0.37860
 Alpha  occ. eigenvalues --   -0.37647  -0.37366  -0.37257  -0.36911  -0.36367
 Alpha  occ. eigenvalues --   -0.35663  -0.34976  -0.29860  -0.28458  -0.26613
 Alpha virt. eigenvalues --   -0.02823   0.01792   0.02732   0.03779   0.04167
 Alpha virt. eigenvalues --    0.04714   0.05292   0.05362   0.06085   0.06350
 Alpha virt. eigenvalues --    0.06404   0.07033   0.07223   0.07443   0.07621
 Alpha virt. eigenvalues --    0.07972   0.08259   0.08523   0.08586   0.08716
 Alpha virt. eigenvalues --    0.09162   0.09811   0.10034   0.10648   0.10720
 Alpha virt. eigenvalues --    0.10928   0.11059   0.11488   0.11794   0.12165
 Alpha virt. eigenvalues --    0.12241   0.12437   0.12873   0.12999   0.13231
 Alpha virt. eigenvalues --    0.13426   0.13806   0.13978   0.14186   0.14280
 Alpha virt. eigenvalues --    0.14836   0.15042   0.15283   0.15713   0.15974
 Alpha virt. eigenvalues --    0.16215   0.16280   0.16360   0.16685   0.17225
 Alpha virt. eigenvalues --    0.17330   0.17703   0.17901   0.18353   0.18631
 Alpha virt. eigenvalues --    0.18938   0.19223   0.19674   0.19845   0.20017
 Alpha virt. eigenvalues --    0.20348   0.20729   0.21022   0.21248   0.21669
 Alpha virt. eigenvalues --    0.21889   0.22264   0.22725   0.22970   0.23243
 Alpha virt. eigenvalues --    0.23437   0.23601   0.24036   0.24433   0.24910
 Alpha virt. eigenvalues --    0.25141   0.25430   0.25582   0.25721   0.26072
 Alpha virt. eigenvalues --    0.26117   0.26367   0.26631   0.26922   0.27133
 Alpha virt. eigenvalues --    0.27240   0.27585   0.27964   0.28201   0.28252
 Alpha virt. eigenvalues --    0.28646   0.28790   0.29054   0.29542   0.29713
 Alpha virt. eigenvalues --    0.29934   0.30072   0.30549   0.30663   0.30720
 Alpha virt. eigenvalues --    0.30896   0.31114   0.31403   0.31544   0.31748
 Alpha virt. eigenvalues --    0.32051   0.32302   0.32401   0.32471   0.32843
 Alpha virt. eigenvalues --    0.32933   0.33230   0.33354   0.33540   0.33733
 Alpha virt. eigenvalues --    0.33914   0.33972   0.34201   0.34498   0.34625
 Alpha virt. eigenvalues --    0.34890   0.34998   0.35209   0.35313   0.35520
 Alpha virt. eigenvalues --    0.35653   0.35848   0.35950   0.36104   0.36296
 Alpha virt. eigenvalues --    0.36366   0.36472   0.36792   0.36960   0.37310
 Alpha virt. eigenvalues --    0.37663   0.37696   0.37997   0.38125   0.38242
 Alpha virt. eigenvalues --    0.38420   0.38732   0.38743   0.39334   0.39574
 Alpha virt. eigenvalues --    0.39715   0.39822   0.40319   0.40529   0.40675
 Alpha virt. eigenvalues --    0.41004   0.41346   0.41701   0.41939   0.42110
 Alpha virt. eigenvalues --    0.42157   0.42485   0.42602   0.43066   0.43149
 Alpha virt. eigenvalues --    0.43528   0.43760   0.44078   0.44376   0.44875
 Alpha virt. eigenvalues --    0.45140   0.45395   0.45554   0.46177   0.46390
 Alpha virt. eigenvalues --    0.46736   0.47090   0.47348   0.47648   0.47906
 Alpha virt. eigenvalues --    0.48068   0.48559   0.48934   0.49150   0.49630
 Alpha virt. eigenvalues --    0.49842   0.50559   0.50758   0.51006   0.51209
 Alpha virt. eigenvalues --    0.51376   0.51623   0.51954   0.52338   0.52676
 Alpha virt. eigenvalues --    0.52929   0.53078   0.53460   0.53764   0.54113
 Alpha virt. eigenvalues --    0.54455   0.54679   0.55086   0.55473   0.55730
 Alpha virt. eigenvalues --    0.56033   0.56315   0.56462   0.56931   0.57395
 Alpha virt. eigenvalues --    0.57621   0.58254   0.58505   0.58790   0.58920
 Alpha virt. eigenvalues --    0.59140   0.59562   0.59827   0.60466   0.60503
 Alpha virt. eigenvalues --    0.60932   0.61335   0.61556   0.61753   0.61896
 Alpha virt. eigenvalues --    0.62207   0.62624   0.62963   0.63127   0.63614
 Alpha virt. eigenvalues --    0.63788   0.63870   0.63886   0.64357   0.64898
 Alpha virt. eigenvalues --    0.65273   0.65977   0.66419   0.66649   0.67099
 Alpha virt. eigenvalues --    0.67116   0.67432   0.67661   0.67978   0.68291
 Alpha virt. eigenvalues --    0.68486   0.68648   0.68964   0.69107   0.69456
 Alpha virt. eigenvalues --    0.69722   0.69864   0.70230   0.70480   0.70991
 Alpha virt. eigenvalues --    0.71266   0.71328   0.71838   0.72064   0.72333
 Alpha virt. eigenvalues --    0.72529   0.73118   0.73360   0.73638   0.73859
 Alpha virt. eigenvalues --    0.74151   0.74548   0.74611   0.75136   0.75282
 Alpha virt. eigenvalues --    0.75703   0.75921   0.76315   0.76628   0.76889
 Alpha virt. eigenvalues --    0.77217   0.77610   0.78236   0.78550   0.78569
 Alpha virt. eigenvalues --    0.78890   0.79373   0.79702   0.79802   0.80218
 Alpha virt. eigenvalues --    0.80816   0.81015   0.81145   0.81250   0.81736
 Alpha virt. eigenvalues --    0.82012   0.82099   0.82442   0.82865   0.83021
 Alpha virt. eigenvalues --    0.83505   0.83696   0.83992   0.84188   0.84374
 Alpha virt. eigenvalues --    0.84589   0.84695   0.85296   0.85432   0.85652
 Alpha virt. eigenvalues --    0.85747   0.86159   0.86200   0.86514   0.86673
 Alpha virt. eigenvalues --    0.86798   0.87066   0.87579   0.87819   0.88055
 Alpha virt. eigenvalues --    0.88259   0.88443   0.88569   0.88778   0.89076
 Alpha virt. eigenvalues --    0.89619   0.89820   0.90197   0.90436   0.90468
 Alpha virt. eigenvalues --    0.90720   0.91116   0.91225   0.91330   0.91613
 Alpha virt. eigenvalues --    0.92043   0.92115   0.92250   0.92633   0.93122
 Alpha virt. eigenvalues --    0.93254   0.93481   0.93632   0.93897   0.94262
 Alpha virt. eigenvalues --    0.94354   0.94963   0.95039   0.95241   0.95604
 Alpha virt. eigenvalues --    0.95796   0.96130   0.96334   0.96654   0.97319
 Alpha virt. eigenvalues --    0.97388   0.97668   0.97779   0.98360   0.98437
 Alpha virt. eigenvalues --    0.98622   0.98738   0.98973   0.99140   0.99237
 Alpha virt. eigenvalues --    0.99709   0.99956   1.00504   1.00723   1.00810
 Alpha virt. eigenvalues --    1.01117   1.01368   1.01670   1.02107   1.02244
 Alpha virt. eigenvalues --    1.02445   1.02681   1.02768   1.03153   1.03320
 Alpha virt. eigenvalues --    1.03571   1.04237   1.04575   1.04699   1.05039
 Alpha virt. eigenvalues --    1.05296   1.05367   1.05638   1.05768   1.06280
 Alpha virt. eigenvalues --    1.06560   1.07225   1.07342   1.07452   1.07729
 Alpha virt. eigenvalues --    1.08024   1.08293   1.08385   1.08627   1.08872
 Alpha virt. eigenvalues --    1.09151   1.09328   1.09744   1.10114   1.10310
 Alpha virt. eigenvalues --    1.10340   1.10631   1.10856   1.11144   1.11389
 Alpha virt. eigenvalues --    1.11625   1.11790   1.12272   1.12541   1.12644
 Alpha virt. eigenvalues --    1.13126   1.13353   1.13500   1.14041   1.14101
 Alpha virt. eigenvalues --    1.14407   1.14580   1.14765   1.15209   1.15484
 Alpha virt. eigenvalues --    1.15676   1.15928   1.16293   1.16663   1.17182
 Alpha virt. eigenvalues --    1.17343   1.17497   1.17962   1.18090   1.18624
 Alpha virt. eigenvalues --    1.18938   1.19100   1.19403   1.19770   1.20143
 Alpha virt. eigenvalues --    1.20283   1.20469   1.20894   1.21310   1.21620
 Alpha virt. eigenvalues --    1.21792   1.22204   1.22435   1.22820   1.23208
 Alpha virt. eigenvalues --    1.23632   1.24034   1.24296   1.24565   1.24831
 Alpha virt. eigenvalues --    1.25065   1.25097   1.25532   1.25687   1.26444
 Alpha virt. eigenvalues --    1.26583   1.26868   1.27267   1.27494   1.28186
 Alpha virt. eigenvalues --    1.28363   1.28549   1.28745   1.29092   1.29486
 Alpha virt. eigenvalues --    1.29645   1.29869   1.30353   1.30607   1.30670
 Alpha virt. eigenvalues --    1.31083   1.31367   1.31886   1.32238   1.32562
 Alpha virt. eigenvalues --    1.32761   1.33080   1.33436   1.33530   1.34092
 Alpha virt. eigenvalues --    1.34592   1.34812   1.34999   1.35732   1.35958
 Alpha virt. eigenvalues --    1.36173   1.36270   1.36582   1.36832   1.37122
 Alpha virt. eigenvalues --    1.37703   1.38031   1.38139   1.38237   1.38497
 Alpha virt. eigenvalues --    1.38887   1.39239   1.40106   1.40394   1.40660
 Alpha virt. eigenvalues --    1.41064   1.41640   1.41712   1.42152   1.42355
 Alpha virt. eigenvalues --    1.42616   1.43091   1.43259   1.43355   1.43953
 Alpha virt. eigenvalues --    1.44263   1.44474   1.44881   1.45142   1.45286
 Alpha virt. eigenvalues --    1.45483   1.45660   1.45895   1.46706   1.46965
 Alpha virt. eigenvalues --    1.47403   1.47699   1.48044   1.48250   1.48555
 Alpha virt. eigenvalues --    1.48813   1.49310   1.49704   1.50168   1.50325
 Alpha virt. eigenvalues --    1.50829   1.50952   1.51248   1.51563   1.52053
 Alpha virt. eigenvalues --    1.52333   1.52662   1.52957   1.53139   1.53290
 Alpha virt. eigenvalues --    1.53773   1.54002   1.54298   1.54718   1.54883
 Alpha virt. eigenvalues --    1.55083   1.55601   1.55873   1.56297   1.56776
 Alpha virt. eigenvalues --    1.57195   1.57401   1.57741   1.58025   1.58166
 Alpha virt. eigenvalues --    1.59013   1.59207   1.59366   1.59519   1.59951
 Alpha virt. eigenvalues --    1.60243   1.60717   1.61417   1.61478   1.61807
 Alpha virt. eigenvalues --    1.61921   1.62081   1.62831   1.62928   1.63193
 Alpha virt. eigenvalues --    1.63713   1.64224   1.64562   1.64835   1.65327
 Alpha virt. eigenvalues --    1.65461   1.66054   1.66300   1.66365   1.66924
 Alpha virt. eigenvalues --    1.67150   1.67723   1.68014   1.68132   1.68311
 Alpha virt. eigenvalues --    1.68782   1.69110   1.69733   1.70067   1.70353
 Alpha virt. eigenvalues --    1.70648   1.71168   1.71637   1.71849   1.72127
 Alpha virt. eigenvalues --    1.72423   1.72699   1.73533   1.73569   1.74334
 Alpha virt. eigenvalues --    1.74390   1.74912   1.75039   1.75297   1.75517
 Alpha virt. eigenvalues --    1.76420   1.76614   1.76835   1.77082   1.77706
 Alpha virt. eigenvalues --    1.78032   1.78994   1.79219   1.79597   1.79823
 Alpha virt. eigenvalues --    1.80220   1.80642   1.81001   1.81213   1.81597
 Alpha virt. eigenvalues --    1.82403   1.82866   1.83051   1.83374   1.83901
 Alpha virt. eigenvalues --    1.84319   1.85002   1.85436   1.86005   1.86106
 Alpha virt. eigenvalues --    1.86202   1.86684   1.87231   1.87348   1.87832
 Alpha virt. eigenvalues --    1.88047   1.88239   1.88366   1.88869   1.89654
 Alpha virt. eigenvalues --    1.89779   1.90149   1.90390   1.90846   1.90995
 Alpha virt. eigenvalues --    1.91423   1.92038   1.92620   1.92679   1.92834
 Alpha virt. eigenvalues --    1.92981   1.93584   1.94506   1.94576   1.94777
 Alpha virt. eigenvalues --    1.94978   1.95088   1.95504   1.95828   1.96126
 Alpha virt. eigenvalues --    1.96531   1.97065   1.97391   1.97579   1.98040
 Alpha virt. eigenvalues --    1.98606   1.98765   1.99265   1.99413   1.99712
 Alpha virt. eigenvalues --    1.99896   1.99997   2.00439   2.00493   2.00748
 Alpha virt. eigenvalues --    2.01375   2.01956   2.02018   2.02239   2.02654
 Alpha virt. eigenvalues --    2.02785   2.03303   2.03487   2.03604   2.04096
 Alpha virt. eigenvalues --    2.04182   2.04628   2.05017   2.05276   2.05507
 Alpha virt. eigenvalues --    2.05731   2.05864   2.06006   2.06977   2.07322
 Alpha virt. eigenvalues --    2.07525   2.07948   2.08338   2.08382   2.08949
 Alpha virt. eigenvalues --    2.09324   2.09734   2.09839   2.09962   2.10401
 Alpha virt. eigenvalues --    2.10533   2.10919   2.11145   2.11601   2.11737
 Alpha virt. eigenvalues --    2.11924   2.12124   2.12567   2.12740   2.12990
 Alpha virt. eigenvalues --    2.13518   2.13529   2.13858   2.14217   2.14478
 Alpha virt. eigenvalues --    2.14684   2.15124   2.15844   2.15896   2.16105
 Alpha virt. eigenvalues --    2.16512   2.16758   2.16985   2.17245   2.17337
 Alpha virt. eigenvalues --    2.17558   2.18082   2.18157   2.18457   2.18599
 Alpha virt. eigenvalues --    2.19045   2.19189   2.19397   2.19637   2.19930
 Alpha virt. eigenvalues --    2.20329   2.20789   2.20935   2.21185   2.21558
 Alpha virt. eigenvalues --    2.21957   2.22116   2.22363   2.22638   2.22668
 Alpha virt. eigenvalues --    2.23065   2.23357   2.23775   2.24017   2.24397
 Alpha virt. eigenvalues --    2.24705   2.25056   2.25178   2.25475   2.25534
 Alpha virt. eigenvalues --    2.25998   2.26086   2.26235   2.26493   2.26693
 Alpha virt. eigenvalues --    2.27288   2.27486   2.27747   2.28096   2.28269
 Alpha virt. eigenvalues --    2.28490   2.28864   2.29174   2.29633   2.29789
 Alpha virt. eigenvalues --    2.30092   2.30367   2.30644   2.30747   2.31161
 Alpha virt. eigenvalues --    2.31517   2.32021   2.32114   2.32607   2.32854
 Alpha virt. eigenvalues --    2.32988   2.33720   2.33956   2.34085   2.34512
 Alpha virt. eigenvalues --    2.34680   2.34882   2.35152   2.35275   2.35698
 Alpha virt. eigenvalues --    2.36013   2.36361   2.36552   2.37089   2.37170
 Alpha virt. eigenvalues --    2.37301   2.37712   2.37917   2.38199   2.38508
 Alpha virt. eigenvalues --    2.38941   2.39125   2.39302   2.39494   2.39835
 Alpha virt. eigenvalues --    2.40411   2.40520   2.41049   2.41218   2.41312
 Alpha virt. eigenvalues --    2.41593   2.41868   2.42240   2.42368   2.42599
 Alpha virt. eigenvalues --    2.43057   2.43245   2.43822   2.44064   2.44317
 Alpha virt. eigenvalues --    2.44669   2.44928   2.45225   2.45300   2.45485
 Alpha virt. eigenvalues --    2.45932   2.46282   2.46608   2.46916   2.47174
 Alpha virt. eigenvalues --    2.47541   2.47974   2.48063   2.48424   2.48777
 Alpha virt. eigenvalues --    2.48909   2.49474   2.49661   2.49912   2.50340
 Alpha virt. eigenvalues --    2.50604   2.50997   2.51135   2.51584   2.52091
 Alpha virt. eigenvalues --    2.52215   2.52387   2.52774   2.52974   2.53140
 Alpha virt. eigenvalues --    2.53531   2.53651   2.54015   2.54110   2.54308
 Alpha virt. eigenvalues --    2.54347   2.54823   2.55058   2.55612   2.55758
 Alpha virt. eigenvalues --    2.56084   2.56219   2.56355   2.56550   2.56729
 Alpha virt. eigenvalues --    2.57315   2.57796   2.58182   2.58450   2.58831
 Alpha virt. eigenvalues --    2.58944   2.59210   2.59445   2.59701   2.59867
 Alpha virt. eigenvalues --    2.60202   2.60673   2.60888   2.61676   2.61762
 Alpha virt. eigenvalues --    2.61912   2.62136   2.62297   2.62626   2.63078
 Alpha virt. eigenvalues --    2.63259   2.63479   2.63647   2.64115   2.64156
 Alpha virt. eigenvalues --    2.64339   2.64635   2.64995   2.65561   2.65719
 Alpha virt. eigenvalues --    2.65877   2.66118   2.66479   2.66801   2.67021
 Alpha virt. eigenvalues --    2.67223   2.67490   2.67824   2.68108   2.68165
 Alpha virt. eigenvalues --    2.68429   2.69056   2.69448   2.69765   2.70151
 Alpha virt. eigenvalues --    2.70294   2.70372   2.70782   2.71299   2.71574
 Alpha virt. eigenvalues --    2.72024   2.72086   2.72486   2.72559   2.72830
 Alpha virt. eigenvalues --    2.73095   2.73416   2.73717   2.74143   2.74523
 Alpha virt. eigenvalues --    2.74748   2.74982   2.75266   2.75406   2.75674
 Alpha virt. eigenvalues --    2.75883   2.76281   2.76452   2.77274   2.77438
 Alpha virt. eigenvalues --    2.77547   2.77735   2.78326   2.78568   2.78797
 Alpha virt. eigenvalues --    2.79214   2.79450   2.79628   2.79765   2.80053
 Alpha virt. eigenvalues --    2.80432   2.80568   2.80925   2.81093   2.81834
 Alpha virt. eigenvalues --    2.81984   2.82065   2.82267   2.82738   2.83037
 Alpha virt. eigenvalues --    2.83545   2.83998   2.84279   2.84502   2.84629
 Alpha virt. eigenvalues --    2.84913   2.85151   2.85995   2.86097   2.86337
 Alpha virt. eigenvalues --    2.86541   2.86579   2.87045   2.87289   2.87390
 Alpha virt. eigenvalues --    2.87539   2.87910   2.88148   2.88695   2.88798
 Alpha virt. eigenvalues --    2.88910   2.89196   2.89704   2.89835   2.89931
 Alpha virt. eigenvalues --    2.90366   2.90561   2.90868   2.90989   2.91189
 Alpha virt. eigenvalues --    2.91665   2.91759   2.92155   2.92499   2.92683
 Alpha virt. eigenvalues --    2.93090   2.93451   2.93616   2.93995   2.94050
 Alpha virt. eigenvalues --    2.94365   2.94707   2.94788   2.95272   2.95365
 Alpha virt. eigenvalues --    2.95480   2.95768   2.96343   2.96616   2.96806
 Alpha virt. eigenvalues --    2.97067   2.97413   2.97702   2.97789   2.98031
 Alpha virt. eigenvalues --    2.98480   2.98621   2.98819   2.99113   2.99215
 Alpha virt. eigenvalues --    2.99300   2.99714   2.99917   3.00625   3.00876
 Alpha virt. eigenvalues --    3.01086   3.01319   3.01485   3.01794   3.02195
 Alpha virt. eigenvalues --    3.02293   3.02478   3.02722   3.02838   3.03318
 Alpha virt. eigenvalues --    3.03629   3.04091   3.04314   3.04439   3.04565
 Alpha virt. eigenvalues --    3.05198   3.05293   3.05671   3.05868   3.06448
 Alpha virt. eigenvalues --    3.07015   3.07249   3.07352   3.07527   3.07742
 Alpha virt. eigenvalues --    3.07912   3.08407   3.09112   3.09198   3.09342
 Alpha virt. eigenvalues --    3.09603   3.09979   3.10150   3.10671   3.11231
 Alpha virt. eigenvalues --    3.11575   3.11964   3.12234   3.12439   3.12565
 Alpha virt. eigenvalues --    3.13114   3.13221   3.13587   3.14282   3.14361
 Alpha virt. eigenvalues --    3.15240   3.15393   3.15575   3.15675   3.16231
 Alpha virt. eigenvalues --    3.16438   3.16739   3.17029   3.17363   3.17754
 Alpha virt. eigenvalues --    3.18227   3.18396   3.18967   3.19340   3.19811
 Alpha virt. eigenvalues --    3.20233   3.20361   3.20681   3.20816   3.21429
 Alpha virt. eigenvalues --    3.21533   3.21760   3.21927   3.22052   3.22144
 Alpha virt. eigenvalues --    3.23275   3.23403   3.23468   3.23665   3.23910
 Alpha virt. eigenvalues --    3.24618   3.24675   3.25138   3.25643   3.26313
 Alpha virt. eigenvalues --    3.26625   3.26795   3.27260   3.27351   3.27442
 Alpha virt. eigenvalues --    3.28275   3.28297   3.28791   3.28841   3.29413
 Alpha virt. eigenvalues --    3.29688   3.30132   3.30408   3.30921   3.31059
 Alpha virt. eigenvalues --    3.31399   3.31486   3.32004   3.32097   3.32412
 Alpha virt. eigenvalues --    3.32977   3.33538   3.33858   3.34288   3.34442
 Alpha virt. eigenvalues --    3.34583   3.34899   3.35107   3.35298   3.35696
 Alpha virt. eigenvalues --    3.36027   3.36584   3.36807   3.37202   3.37324
 Alpha virt. eigenvalues --    3.37719   3.38494   3.38505   3.38997   3.39142
 Alpha virt. eigenvalues --    3.39398   3.39615   3.39956   3.40416   3.40765
 Alpha virt. eigenvalues --    3.41109   3.41446   3.41871   3.42156   3.42344
 Alpha virt. eigenvalues --    3.42966   3.43240   3.43266   3.43455   3.44372
 Alpha virt. eigenvalues --    3.44514   3.44770   3.45077   3.45563   3.45806
 Alpha virt. eigenvalues --    3.45992   3.46503   3.46597   3.47096   3.47491
 Alpha virt. eigenvalues --    3.47619   3.47833   3.48400   3.48536   3.49193
 Alpha virt. eigenvalues --    3.49396   3.49793   3.49874   3.50015   3.50545
 Alpha virt. eigenvalues --    3.51105   3.51448   3.51520   3.51804   3.52514
 Alpha virt. eigenvalues --    3.52712   3.53247   3.53744   3.54108   3.54180
 Alpha virt. eigenvalues --    3.54817   3.55022   3.55277   3.55457   3.55714
 Alpha virt. eigenvalues --    3.55898   3.56646   3.57026   3.57540   3.57969
 Alpha virt. eigenvalues --    3.58231   3.58757   3.59174   3.59524   3.59719
 Alpha virt. eigenvalues --    3.60258   3.60810   3.61168   3.61636   3.62047
 Alpha virt. eigenvalues --    3.62339   3.62608   3.63035   3.63376   3.63558
 Alpha virt. eigenvalues --    3.64436   3.64609   3.65190   3.65436   3.66076
 Alpha virt. eigenvalues --    3.66889   3.67200   3.67507   3.67776   3.68071
 Alpha virt. eigenvalues --    3.68389   3.68796   3.69615   3.69816   3.70131
 Alpha virt. eigenvalues --    3.70350   3.70715   3.71008   3.71794   3.72141
 Alpha virt. eigenvalues --    3.72293   3.72740   3.73177   3.74015   3.74082
 Alpha virt. eigenvalues --    3.75268   3.75468   3.75901   3.76424   3.76654
 Alpha virt. eigenvalues --    3.77007   3.77512   3.77789   3.77822   3.78255
 Alpha virt. eigenvalues --    3.78731   3.79058   3.79277   3.79915   3.80230
 Alpha virt. eigenvalues --    3.80713   3.80932   3.81374   3.81644   3.81735
 Alpha virt. eigenvalues --    3.82074   3.82403   3.82520   3.83197   3.83740
[...]
 Alpha virt. eigenvalues --    7.46152   7.46313   7.46949   7.47131   7.47515
 Alpha virt. eigenvalues --    7.47842   7.48194   7.48802   7.48815   7.49021
 Alpha virt. eigenvalues --    7.49246   7.49454   7.50014   7.50399   7.50489
 Alpha virt. eigenvalues --    7.50672   7.50976   7.51379   7.51511   7.51844
 Alpha virt. eigenvalues --    7.52116   7.52842   7.52956   7.53223   7.53756
 Alpha virt. eigenvalues --    7.53930   7.54126   7.54758   7.55032   7.55191
 Alpha virt. eigenvalues --    7.55677   7.55883   7.56018   7.56242   7.56305
 Alpha virt. eigenvalues --    7.56565   7.56991   7.57177   7.57671   7.57778
 Alpha virt. eigenvalues --    7.58004   7.58381   7.58826   7.59251   7.59528
 Alpha virt. eigenvalues --    7.59824   7.60039   7.60282   7.60786   7.61303
 Alpha virt. eigenvalues --    7.61684   7.62134   7.62696   7.62862   7.63511
 Alpha virt. eigenvalues --    7.63666   7.64221   7.64490   7.64762   7.64960
 Alpha virt. eigenvalues --    7.65242   7.65662   7.65737   7.66225   7.66253
 Alpha virt. eigenvalues --    7.66618   7.66864   7.67682   7.67790   7.68038
 Alpha virt. eigenvalues --    7.68241   7.68785   7.69061   7.69419   7.69626
 Alpha virt. eigenvalues --    7.70578   7.70861   7.71137   7.71495   7.71597
 Alpha virt. eigenvalues --    7.72063   7.72225   7.72263   7.72813   7.73128
 Alpha virt. eigenvalues --    7.73311   7.73731   7.74381   7.74935   7.75056
 Alpha virt. eigenvalues --    7.75291   7.75654   7.76008   7.76409   7.76685
 Alpha virt. eigenvalues --    7.76784   7.76994   7.77380   7.77430   7.77880
 Alpha virt. eigenvalues --    7.78246   7.78715   7.79094   7.79256   7.79544
 Alpha virt. eigenvalues --    7.79694   7.79912   7.80228   7.80335   7.80735
 Alpha virt. eigenvalues --    7.80835   7.81072   7.81532   7.81695   7.82013
 Alpha virt. eigenvalues --    7.82240   7.82546   7.82969   7.83451   7.83847
 Alpha virt. eigenvalues --    7.84305   7.84488   7.84716   7.85322   7.85492
 Alpha virt. eigenvalues --    7.85665   7.85863   7.86380   7.87208   7.87343
 Alpha virt. eigenvalues --    7.88009   7.88127   7.88913   7.89535   7.89853
 Alpha virt. eigenvalues --    7.90458   7.90668   7.91735   7.92010   7.92207
 Alpha virt. eigenvalues --    7.92604   7.93052   7.93889   7.94393   7.95162
 Alpha virt. eigenvalues --    7.95876   7.96335   7.96715   7.96824   7.97691
 Alpha virt. eigenvalues --    7.98367   7.98753   7.98900   7.99123   7.99676
 Alpha virt. eigenvalues --    7.99746   7.99889   8.00101   8.00703   8.00999
 Alpha virt. eigenvalues --    8.01384   8.01736   8.02635   8.02937   8.03318
 Alpha virt. eigenvalues --    8.03415   8.03905   8.04229   8.04439   8.05155
 Alpha virt. eigenvalues --    8.05319   8.05973   8.06191   8.06782   8.07144
 Alpha virt. eigenvalues --    8.07355   8.07791   8.08142   8.08764   8.09216
 Alpha virt. eigenvalues --    8.09635   8.09686   8.10016   8.10445   8.10826
 Alpha virt. eigenvalues --    8.11041   8.11227   8.11777   8.12238   8.12302
 Alpha virt. eigenvalues --    8.12768   8.12780   8.13309   8.14056   8.14408
 Alpha virt. eigenvalues --    8.15236   8.15320   8.15838   8.16390   8.16709
 Alpha virt. eigenvalues --    8.16862   8.17394   8.17724   8.18014   8.18329
 Alpha virt. eigenvalues --    8.18439   8.18888   8.19377   8.19490   8.19950
 Alpha virt. eigenvalues --    8.21070   8.21703   8.22578   8.23029   8.23448
 Alpha virt. eigenvalues --    8.23631   8.24067   8.24234   8.24269   8.24540
 Alpha virt. eigenvalues --    8.25153   8.25183   8.25772   8.26114   8.26408
 Alpha virt. eigenvalues --    8.26815   8.27759   8.28247   8.28743   8.29000
 Alpha virt. eigenvalues --    8.29142   8.29570   8.29961   8.30003   8.30530
 Alpha virt. eigenvalues --    8.30907   8.31362   8.31410   8.31520   8.31871
 Alpha virt. eigenvalues --    8.32250   8.32561   8.32946   8.33056   8.33658
 Alpha virt. eigenvalues --    8.33848   8.34079   8.34297   8.34496   8.35240
 Alpha virt. eigenvalues --    8.35400   8.35750   8.36262   8.36470   8.36809
 Alpha virt. eigenvalues --    8.37112   8.37546   8.37784   8.37854   8.38483
 Alpha virt. eigenvalues --    8.38909   8.39009   8.39311   8.39485   8.39504
 Alpha virt. eigenvalues --    8.39880   8.40292   8.40704   8.40956   8.41238
 Alpha virt. eigenvalues --    8.41470   8.41972   8.42395   8.42763   8.43194
 Alpha virt. eigenvalues --    8.43603   8.44041   8.44182   8.44428   8.44863
 Alpha virt. eigenvalues --    8.45035   8.45615   8.46936   8.47018   8.47734
 Alpha virt. eigenvalues --    8.47905   8.48240   8.48497   8.48636   8.49575
 Alpha virt. eigenvalues --    8.49908   8.50469   8.51300   8.51358   8.52136
 Alpha virt. eigenvalues --    8.52310   8.52534   8.53415   8.53810   8.53886
 Alpha virt. eigenvalues --    8.54385   8.54974   8.55466   8.56248   8.56433
 Alpha virt. eigenvalues --    8.56828   8.57431   8.57700   8.58000   8.58520
 Alpha virt. eigenvalues --    8.58675   8.59015   8.59783   8.60001   8.60271
 Alpha virt. eigenvalues --    8.61072   8.61633   8.61846   8.61987   8.62212
 Alpha virt. eigenvalues --    8.62693   8.62995   8.63091   8.63557   8.63734
 Alpha virt. eigenvalues --    8.64420   8.64757   8.65154   8.65599   8.65757
 Alpha virt. eigenvalues --    8.66442   8.66652   8.66917   8.67287   8.67684
 Alpha virt. eigenvalues --    8.68366   8.68815   8.69207   8.69735   8.70083
 Alpha virt. eigenvalues --    8.70957   8.71162   8.72174   8.72514   8.72986
 Alpha virt. eigenvalues --    8.73563   8.73811   8.74037   8.74306   8.74734
 Alpha virt. eigenvalues --    8.75031   8.75823   8.76412   8.76577   8.76978
 Alpha virt. eigenvalues --    8.77023   8.77421   8.78182   8.78381   8.78752
 Alpha virt. eigenvalues --    8.79259   8.79603   8.80286   8.80451   8.80960
 Alpha virt. eigenvalues --    8.81169   8.81604   8.81993   8.82368   8.82493
 Alpha virt. eigenvalues --    8.82598   8.82972   8.83524   8.83683   8.84135
 Alpha virt. eigenvalues --    8.84198   8.84749   8.84953   8.85491   8.85895
 Alpha virt. eigenvalues --    8.86338   8.86653   8.87151   8.87351   8.87555
 Alpha virt. eigenvalues --    8.87724   8.88069   8.88837   8.89082   8.89491
 Alpha virt. eigenvalues --    8.90058   8.90547   8.90952   8.91034   8.91629
 Alpha virt. eigenvalues --    8.91789   8.92028   8.92253   8.93009   8.93072
 Alpha virt. eigenvalues --    8.93588   8.93846   8.94602   8.94936   8.95873
 Alpha virt. eigenvalues --    8.96112   8.96242   8.96705   8.96804   8.97702
 Alpha virt. eigenvalues --    8.98010   8.98632   8.98976   8.99341   8.99799
 Alpha virt. eigenvalues --    8.99960   9.00754   9.00981   9.01035   9.01385
 Alpha virt. eigenvalues --    9.01779   9.02293   9.02886   9.03476   9.03807
 Alpha virt. eigenvalues --    9.04457   9.04571   9.05288   9.05990   9.06248
 Alpha virt. eigenvalues --    9.07089   9.07439   9.08439   9.09277   9.09493
 Alpha virt. eigenvalues --    9.10146   9.10845   9.11671   9.11906   9.12334
 Alpha virt. eigenvalues --    9.13052   9.13768   9.13864   9.14650   9.16141
 Alpha virt. eigenvalues --    9.17129   9.17957   9.18423   9.20088   9.20370
 Alpha virt. eigenvalues --    9.22347   9.22676   9.24033   9.24871   9.26459
 Alpha virt. eigenvalues --    9.30956   9.34878   9.36620   9.37268   9.43216
 Alpha virt. eigenvalues --    9.44784   9.46741   9.48319   9.50189   9.51255
 Alpha virt. eigenvalues --    9.51752   9.52553   9.52916   9.53467   9.56065
 Alpha virt. eigenvalues --    9.56648   9.58238   9.58575   9.58774   9.58999
 Alpha virt. eigenvalues --    9.59459   9.59801   9.59909   9.60071   9.60357
 Alpha virt. eigenvalues --    9.60443   9.60478   9.61073   9.61259   9.61285
 Alpha virt. eigenvalues --    9.61906   9.62061   9.62200   9.62450   9.62909
 Alpha virt. eigenvalues --    9.63137   9.64122   9.64991   9.65124   9.65385
 Alpha virt. eigenvalues --    9.65559   9.65922   9.66556   9.66931   9.67023
 Alpha virt. eigenvalues --    9.68018   9.68371   9.68645   9.69111   9.69759
 Alpha virt. eigenvalues --    9.70157   9.70758   9.71175   9.72235   9.72809
 Alpha virt. eigenvalues --    9.73009   9.73406   9.74052   9.74509   9.74854
 Alpha virt. eigenvalues --    9.74955   9.75721   9.76181   9.76754   9.77585
 Alpha virt. eigenvalues --    9.78050   9.78389   9.78776   9.78813   9.79160
 Alpha virt. eigenvalues --    9.79389   9.79719   9.80090   9.80603   9.80937
 Alpha virt. eigenvalues --    9.81614   9.81696   9.82085   9.82554   9.82672
 Alpha virt. eigenvalues --    9.83096   9.84428   9.85046   9.85551   9.86061
 Alpha virt. eigenvalues --    9.87179   9.88427   9.89073   9.89518   9.90386
 Alpha virt. eigenvalues --    9.92347   9.93472   9.94272   9.94791   9.95214
 Alpha virt. eigenvalues --    9.95905   9.96020   9.96459   9.96795   9.97072
 Alpha virt. eigenvalues --    9.97482   9.97584   9.98187   9.98573   9.99881
 Alpha virt. eigenvalues --   10.01409  10.02412  10.03447  10.04349  10.05133
 Alpha virt. eigenvalues --   10.05518  10.09713  10.10732  10.10901  10.11661
 Alpha virt. eigenvalues --   10.12704  10.13234  10.13477  10.13996  10.14271
 Alpha virt. eigenvalues --   10.14791  10.15081  10.15310  10.15740  10.16214
 Alpha virt. eigenvalues --   10.16428  10.16848  10.17109  10.17562  10.17714
 Alpha virt. eigenvalues --   10.18052  10.18558  10.19357  10.19925  10.20475
 Alpha virt. eigenvalues --   10.20530  10.20814  10.22354  10.22772  10.23424
 Alpha virt. eigenvalues --   10.23709  10.24718  10.26295  10.30193  10.31468
 Alpha virt. eigenvalues --   10.32833  10.33254  10.34085  10.34715  10.35725
 Alpha virt. eigenvalues --   10.36351  10.37424  10.37501  10.38447  10.40090
 Alpha virt. eigenvalues --   10.44032  10.45091  10.49561  10.50404  10.51822
 Alpha virt. eigenvalues --   10.54049  10.55201  10.57144  10.59806  10.71026
 Alpha virt. eigenvalues --   10.78460  10.86165  10.88913  10.94287  10.95698
 Alpha virt. eigenvalues --   11.02788  11.06123  11.08323  11.24271  11.28259
 Alpha virt. eigenvalues --   11.32572  11.35325  11.35765  11.39525  11.59029
 Alpha virt. eigenvalues --   11.61718  11.63387  11.68962  11.71938  11.76995
 Alpha virt. eigenvalues --   11.78640  11.79269  11.82907  11.86054  11.86891
 Alpha virt. eigenvalues --   11.88950  11.95559  11.97267  12.00108  12.04841
 Alpha virt. eigenvalues --   12.08636  12.09251  12.10510  12.13557  12.14411
 Alpha virt. eigenvalues --   12.14857  12.16930  12.19957  12.21512  12.22652
 Alpha virt. eigenvalues --   12.24189  12.25331  12.26388  12.27707  12.28427
 Alpha virt. eigenvalues --   12.28680  12.29677  12.30932  12.31772  12.33444
 Alpha virt. eigenvalues --   12.33978  12.35598  12.37486  12.37951  12.40135
 Alpha virt. eigenvalues --   12.41098  12.42438  12.44039  12.45290  12.45866
 Alpha virt. eigenvalues --   12.47629  12.48276  12.50068  12.51418  12.51769
 Alpha virt. eigenvalues --   12.55040  12.58676  12.65042  12.70553  12.72146
 Alpha virt. eigenvalues --   13.01501  13.03800  13.06023  13.11064  13.16295
 Alpha virt. eigenvalues --   13.18485  13.19555  13.21463  13.21957  13.22766
 Alpha virt. eigenvalues --   13.23344  13.23499  13.23882  13.26424  13.26942
 Alpha virt. eigenvalues --   13.27734  13.29461  13.36332  13.39251  13.43988
 Alpha virt. eigenvalues --   13.54033  13.59152  14.21508  14.34918  14.39267
 Alpha virt. eigenvalues --   14.43782  14.61701  14.71843  28.53043  28.58243
 Alpha virt. eigenvalues --   28.72842  28.79665  28.82139  28.88046  28.95167
 Alpha virt. eigenvalues --   28.95501  28.96733  28.99706  29.01850  29.05772
 Alpha virt. eigenvalues --   29.11207  29.18348  29.23518  29.24268  29.24744
 Alpha virt. eigenvalues --   29.25202  29.25767  29.26271  29.27354  29.28518
 Alpha virt. eigenvalues --   29.30861  29.31108  29.34456  29.38265  48.24832
 Alpha virt. eigenvalues --   48.38977  48.39222  48.61881 145.99557 146.04790
 Alpha virt. eigenvalues --  146.25550 146.32346 146.34071 146.39411 146.42047
 Alpha virt. eigenvalues --  146.42435 146.48943 146.53027 146.54742 146.59186
 Alpha virt. eigenvalues --  146.63563 146.71094 146.74389 146.75375 146.76023
 Alpha virt. eigenvalues --  146.76755 146.77373 146.78602 146.79089 146.82190
 Alpha virt. eigenvalues --  146.82868 146.85891 146.86631 146.93085 251.34796
 Alpha virt. eigenvalues --  251.51108 251.51701 251.78007
          Condensed to atoms (all electrons):
 Mulliken charges:
               1
     1  C   -0.804917
     2  C    0.329895
     3  C    0.382323
     4  C   -0.213014
     5  C    0.119512
     6  C   -0.671152
     7  C   -0.721029
     8  C   -0.694455
     9  C    0.106165
    10  C   -0.707360
    11  C   -0.715328
    12  C   -0.688017
    13  C   -0.169156
    14  C   -0.427259
    15  C   -0.025591
    16  C   -0.706576
    17  C   -0.872021
    18  C   -0.721584
    19  C    0.182215
    20  C   -0.693964
    21  C   -0.687263
    22  C   -0.725424
    23  C    0.257096
    24  O   -0.354159
    25  O   -0.231692
    26  C   -0.453067
    27  C    0.262200
    28  O   -0.371215
    29  O   -0.304135
    30  C   -0.429437
    31  H    0.211277
    32  H    0.275067
    33  H    0.269580
    34  H    0.292371
    35  H    0.319800
    36  H    0.195809
    37  H    0.287548
    38  H    0.268814
    39  H    0.203479
    40  H    0.267855
    41  H    0.280354
    42  H    0.212161
    43  H    0.303486
    44  H    0.264379
    45  H    0.203614
    46  H    0.276619
    47  H    0.196830
    48  H    0.292781
    49  H    0.218323
    50  H    0.300061
    51  H    0.274590
    52  H    0.228905
    53  H    0.337865
    54  H    0.349285
    55  H    0.255408
    56  H    0.322557
    57  H    0.213721
    58  H    0.278275
    59  H    0.295823
    60  H    0.204753
    61  H    0.250961
    62  H    0.262596
    63  H    0.198857
    64  H    0.291876
    65  H    0.199261
    66  H    0.304515
    67  H    0.237234
    68  H    0.215611
    69  H    0.235680
    70  H    0.202961
    71  H    0.221761
    72  H    0.225706
 Sum of Mulliken charges =  -0.00000
 Mulliken charges with hydrogens summed into heavy atoms:
               1
     1  C   -0.804917
     2  C    0.329895
     3  C    0.382323
     4  C   -0.213014
     5  C    0.119512
     6  C    0.084772
     7  C    0.086951
     8  C    0.065385
     9  C    0.106165
    10  C    0.053010
    11  C    0.056151
    12  C    0.078213
    13  C   -0.169156
    14  C   -0.427259
    15  C   -0.025591
    16  C    0.086397
    17  C    0.044034
    18  C    0.070102
    19  C    0.182215
    20  C    0.084887
    21  C    0.025152
    22  C    0.070228
    23  C    0.257096
    24  O   -0.354159
    25  O   -0.231692
    26  C    0.235458
    27  C    0.262200
    28  O   -0.371215
    29  O   -0.304135
    30  C    0.220992
 Electronic spatial extent (au):  <R**2>=          10312.0223
 Charge=              0.0000 electrons
 Dipole moment (field-independent basis, Debye):
    X=              0.5579    Y=             -0.8884    Z=              0.2549  Tot=              1.0796
 Quadrupole moment (field-independent basis, Debye-Ang):
   XX=           -173.8161   YY=           -187.1035   ZZ=           -189.3347
   XY=             -1.6768   XZ=              1.6340   YZ=              7.2253
 Traceless Quadrupole moment (field-independent basis, Debye-Ang):
   XX=              9.6020   YY=             -3.6854   ZZ=             -5.9166
   XY=             -1.6768   XZ=              1.6340   YZ=              7.2253
 Octapole moment (field-independent basis, Debye-Ang**2):
  XXX=             98.3735  YYY=             33.1205  ZZZ=              6.4095  XYY=              2.0903
  XXY=             25.0664  XXZ=             -1.3208  XZZ=             18.3915  YZZ=             20.3903
  YYZ=             34.7057  XYZ=              7.3223
 Hexadecapole moment (field-independent basis, Debye-Ang**3):
 XXXX=          -6477.4338 YYYY=          -4334.7993 ZZZZ=          -2898.5975 XXXY=            165.0208
 XXXZ=           -123.3602 YYYX=             -1.8791 YYYZ=            114.1594 ZZZX=            -21.0921
 ZZZY=             75.4963 XXYY=          -1825.8281 XXZZ=          -1617.1742 YYZZ=          -1142.7890
 XXYZ=            -54.8354 YYXZ=             36.3097 ZZXY=             19.7983
 N-N= 3.554111926477D+03 E-N=-1.017141143937D+04  KE= 1.310041166288D+03
 No NMR shielding tensors so no spin-rotation constants.
 Leave Link  601 at Thu Apr 22 18:20:53 2021, MaxMem= 12079595520 cpu:            7330.0 elap:             157.4
 (Enter /s/ls4/groups/g0130/bin/g16/l9999.exe)

 Test job not archived.
 1\1\GINC-N003\Stability\RM062X\def2QZVP\C26H42O4\ROOT\22-Apr-2021\0\\#
 P M062X/Def2QZVP Integral=UltraFineGrid SCF=NoSymm Stable=(RExt, Opt) 
 IOp(1/33=1)\\Database calculations.\\0,1\C,0,-0.9350514,1.3631458,0.36
 20705\C,0,-0.8901624,-0.1803078,0.0926089\C,0,0.6389271,-0.0388228,0.1
 923933\C,0,0.3386101,1.4805899,-0.143069\C,0,1.1521405,2.5837257,-0.79
 19377\C,0,1.8437228,3.5207832,0.2268528\C,0,2.2270022,1.9371576,-1.689
 5553\C,0,0.2433102,3.4329132,-1.710921\C,0,-2.0913814,2.2338556,0.7923
 821\C,0,-1.6004649,3.5198308,1.4895293\C,0,-2.9992925,2.6131966,-0.406
 0408\C,0,-2.9410049,1.4209525,1.7965565\C,0,-0.6376021,-1.7107328,0.24
 52394\C,0,0.6306897,-1.5470368,-0.2915821\C,0,1.3135346,-0.0787791,1.6
 854426\C,0,0.8838526,1.0813228,2.6088744\C,0,2.8370082,0.0233682,1.470
 938\C,0,1.0403886,-1.3634981,2.5046203\C,0,1.5659489,-2.4424061,-1.067
 018\C,0,2.3110917,-3.4386461,-0.1450783\C,0,0.7374252,-3.2415097,-2.10
 60633\C,0,2.5855293,-1.5843999,-1.8395923\C,0,-1.3712205,-0.2015029,-1
 .391119\O,0,-0.7224616,0.0231665,-2.3951379\O,0,-2.683599,-0.5391494,-
 1.4110658\C,0,-3.295086,-0.6249038,-2.7217616\C,0,-1.5142039,-2.797903
 7,0.661369\O,0,-2.6448324,-2.6461982,1.0909383\O,0,-0.8986635,-4.02554
 83,0.5854963\C,0,-1.7004007,-5.1444282,1.0288847\H,0,2.3602206,4.32357
 86,-0.3172222\H,0,1.1154134,3.9756223,0.9068401\H,0,2.5874714,2.98442,
 0.8262884\H,0,2.9061411,1.3047429,-1.1104156\H,0,1.7505794,1.316684,-2
 .4552496\H,0,2.8145693,2.7250884,-2.1797336\H,0,-0.2864875,2.7855576,-
 2.4182916\H,0,-0.4914138,4.0054806,-1.1380974\H,0,0.8619065,4.144855,-
 2.2743852\H,0,-0.9440097,3.2769644,2.3324257\H,0,-1.0544445,4.1739184,
 0.8030847\H,0,-2.4669441,4.0770621,1.8702754\H,0,-2.4384207,3.145841,-
 1.1801528\H,0,-3.4465475,1.7169578,-0.845844\H,0,-3.810367,3.2635832,-
 0.0496999\H,0,-2.3614303,1.1815999,2.69704\H,0,-3.8178757,2.0098285,2.
 0976371\H,0,-3.2771796,0.4805885,1.3453812\H,0,1.4123273,0.9704123,3.5
 656609\H,0,1.1204835,2.0647263,2.2023628\H,0,-0.1932011,1.0459232,2.80
 53346\H,0,3.344429,0.0342768,2.4453082\H,0,3.2179395,-0.8317338,0.9041
 745\H,0,3.1076197,0.9400224,0.9382411\H,0,-0.0315299,-1.4835696,2.7049
 952\H,0,1.3992937,-2.2736463,2.0198713\H,0,1.5577263,-1.2671156,3.4688
 09\H,0,2.9714358,-2.9165729,0.5566382\H,0,1.5999602,-4.0479558,0.42134
 64\H,0,2.9284023,-4.098716,-0.7694505\H,0,0.0194003,-3.9010466,-1.6120
 559\H,0,0.2020904,-2.5513116,-2.768312\H,0,1.4205563,-3.8519885,-2.712
 3762\H,0,3.2071112,-0.9864531,-1.166516\H,0,3.2398257,-2.243901,-2.424
 8192\H,0,2.0657924,-0.90433,-2.5216641\H,0,-3.2520216,0.3486708,-3.224
 432\H,0,-2.7747712,-1.3701467,-3.3344736\H,0,-4.3293448,-0.924654,-2.5
 363075\H,0,-1.0660405,-6.0247986,0.8949603\H,0,-1.9792984,-5.0209412,2
 .0822131\H,0,-2.6131219,-5.2257582,0.4263567\\Version=ES64L-G16RevA.03
 \State=1-A\HF=-1316.7916426\RMSD=7.959e-10\Dipole=0.3545702,-0.2107903
 ,-0.1012798\Quadrupole=-2.7033714,7.0548196,-4.3514482,-1.5142829,5.33
 45081,1.4283857\PG=C01 [X(C26H42O4)]\\@


 The cat could very well be man's best friend
 but would never stoop to admitting it.
                               -- Doug Larson
 Job cpu time:     109 days 12 hours 10 minutes 23.0 seconds.
 Elapsed time:       2 days  7 hours 44 minutes 45.1 seconds.
 File lengths (MBytes):  RWF=  15864 Int=      0 D2E=      0 Chk=    982 Scr=      1
 Normal termination of Gaussian 16 at Thu Apr 22 18:20:55 2021.
