 Entering Gaussian System, Link 0=/s/ls4/users/knvvv/bin/g16sse/g16
 Input=data/database/M062X--def2-QZVP--W4-11_bn.gjf
 Output=data/database/M062X--def2-QZVP--W4-11_bn.log
 Initial command:
 /s/ls4/users/knvvv/bin/g16sse/l1.exe "/s/ls4/users/knvvv/bin/scratch/Gau-2786.inp" -scrdir="/s/ls4/users/knvvv/bin/scratch/"
 Entering Link 1 = /s/ls4/users/knvvv/bin/g16sse/l1.exe PID=      2787.
  
 Copyright (c) 1988,1990,1992,1993,1995,1998,2003,2009,2016,
            Gaussian, Inc.  All Rights Reserved.
  
 This is part of the Gaussian(R) 16 program.  It is based on
 the Gaussian(R) 09 system (copyright 2009, Gaussian, Inc.),
 the Gaussian(R) 03 system (copyright 2003, Gaussian, Inc.),
 the Gaussian(R) 98 system (copyright 1998, Gaussian, Inc.),
 the Gaussian(R) 94 system (copyright 1995, Gaussian, Inc.),
 the Gaussian 92(TM) system (copyright 1992, Gaussian, Inc.),
 the Gaussian 90(TM) system (copyright 1990, Gaussian, Inc.),
 the Gaussian 88(TM) system (copyright 1988, Gaussian, Inc.),
 the Gaussian 86(TM) system (copyright 1986, Carnegie Mellon
 University), and the Gaussian 82(TM) system (copyright 1983,
 Carnegie Mellon University). Gaussian is a federally registered
 trademark of Gaussian, Inc.
  
 This software contains proprietary and confidential information,
 including trade secrets, belonging to Gaussian, Inc.
  
 This software is provided under written license and may be
 used, copied, transmitted, or stored only in accord with that
 written license.
  
 The following legend is applicable only to US Government
 contracts under FAR:
  
                    RESTRICTED RIGHTS LEGEND
  
 Use, reproduction and disclosure by the US Government is
 subject to restrictions as set forth in subparagraphs (a)
 and (c) of the Commercial Computer Software - Restricted
 Rights clause in FAR 52.227-19.
  
 Gaussian, Inc.
 340 Quinnipiac St., Bldg. 40, Wallingford CT 06492
  
  
 ---------------------------------------------------------------
 Warning -- This program may not be used in any manner that
 competes with the business of Gaussian, Inc. or will provide
 assistance to any competitor of Gaussian, Inc.  The licensee
 of this program is prohibited from giving any competitor of
 Gaussian, Inc. access to this program.  By using this program,
 the user acknowledges that Gaussian, Inc. is engaged in the
 business of creating and licensing software in the field of
 computational chemistry and represents and warrants to the
 licensee that it is not a competitor of Gaussian, Inc. and that
 it will not use this program in any manner prohibited above.
 ---------------------------------------------------------------
  

 Cite this work as:
 Gaussian 16, Revision A.03,
 M. J. Frisch, G. W. Trucks, H. B. Schlegel, G. E. Scuseria, 
 M. A. Robb, J. R. Cheeseman, G. Scalmani, V. Barone, 
 G. A. Petersson, H. Nakatsuji, X. Li, M. Caricato, A. V. Marenich, 
 J. Bloino, B. G. Janesko, R. Gomperts, B. Mennucci, H. P. Hratchian, 
 J. V. Ortiz, A. F. Izmaylov, J. L. Sonnenberg, D. Williams-Young, 
 F. Ding, F. Lipparini, F. Egidi, J. Goings, B. Peng, A. Petrone, 
 T. Henderson, D. Ranasinghe, V. G. Zakrzewski, J. Gao, N. Rega, 
 G. Zheng, W. Liang, M. Hada, M. Ehara, K. Toyota, R. Fukuda, 
 J. Hasegawa, M. Ishida, T. Nakajima, Y. Honda, O. Kitao, H. Nakai, 
 T. Vreven, K. Throssell, J. A. Montgomery, Jr., J. E. Peralta, 
 F. Ogliaro, M. J. Bearpark, J. J. Heyd, E. N. Brothers, K. N. Kudin, 
 V. N. Staroverov, T. A. Keith, R. Kobayashi, J. Normand, 
 K. Raghavachari, A. P. Rendell, J. C. Burant, S. S. Iyengar, 
 J. Tomasi, M. Cossi, J. M. Millam, M. Klene, C. Adamo, R. Cammi, 
 J. W. Ochterski, R. L. Martin, K. Morokuma, O. Farkas, 
 J. B. Foresman, and D. J. Fox, Gaussian, Inc., Wallingford CT, 2016.
 
 ******************************************
 Gaussian 16:  ES64L-G16RevA.03 25-Dec-2016
                18-Apr-2021 
 ******************************************
 %RWF=temp23_60872,70GB
 %nprocshared=48
 Will use up to   48 processors via shared memory.
 Default route: MaxDisk=80GB
 ----------------------------------------------------------------------
 #P M062X/Def2QZVP Integral=UltraFineGrid SCF=NoSymm Stable=(RExt, Opt)
  IOp(1/33=1)
 ----------------------------------------------------------------------
 1/33=1,38=1,172=1/1;
 2/12=2,17=6,18=5,40=1/2;
 3/5=45,7=101,11=2,25=1,30=1,74=-55,75=-5/1,2,3;
 4/9=2/1;
 5/5=2,38=5/2;
 6/7=2,8=2,9=2,10=2,28=1/1;
 8/6=1,10=90,11=11/1;
 9/8=-3,42=1,46=1/14;
 5/5=2,8=3,17=40,38=5/8(-2);
 6/7=2,8=2,9=2,10=2,28=1/1;
 99/5=1,9=1/99;
 Leave Link    1 at Sun Apr 18 03:14:17 2021, MaxMem=           0 cpu:               7.9 elap:               0.2
 (Enter /s/ls4/users/knvvv/bin/g16sse/l101.exe)
 ONIOM data not found on unit 2.
 ----------------------
 Database calculations.
 ----------------------
 TstMul:  ICh=     0
 TstMul:  Mul=     1
 TstMul:  ICh=     0
 TstMul:  Mul=     1
 Symbolic Z-matrix:
 Charge =  0 Multiplicity = 1
 B                     0.        0.        0. 
 N                     0.        0.        1.283 
 
 RdStrC is calling ZToCFu for IStruc=1 NZ=     2.
 PrtBox:  NBox=     1 Levels=  1 BoxLen=    8.00 SMaxX=        2.42
          Shift=            0.000000            0.000000            0.000000
 Box      1 Number                   0 centers from      1 to      2:
 After GenITR:
 ITRead=  0  0
 MicOpt= -1 -1
 ITRead=  0  0
 MicOpt= -1 -1
 NAtoms=      2 NQM=        2 NQMF=       0 NMMI=      0 NMMIF=      0
                NMic=       0 NMicF=      0.
                    Isotopes and Nuclear Properties:
 (Nuclear quadrupole moments (NQMom) in fm**2, nuclear magnetic moments (NMagM)
  in nuclear magnetons)

  Atom         1           2
 IAtWgt=          11          14
 AtmWgt=  11.0093053  14.0030740
 NucSpn=           3           2
 AtZEff=  -0.0000000  -0.0000000
 NQMom=    4.0590000   2.0440000
 NMagM=    2.6886370   0.4037610
 AtZNuc=   5.0000000   7.0000000
 No MM parameters found.
 Leave Link  101 at Sun Apr 18 03:14:18 2021, MaxMem=   104857600 cpu:               8.2 elap:               0.2
 (Enter /s/ls4/users/knvvv/bin/g16sse/l202.exe)
                          Input orientation:                          
 ---------------------------------------------------------------------
 Center     Atomic      Atomic             Coordinates (Angstroms)
 Number     Number       Type             X           Y           Z
 ---------------------------------------------------------------------
      1          5           0        0.000000    0.000000    0.000000
      2          7           0        0.000000    0.000000    1.283000
 ---------------------------------------------------------------------
 Stoichiometry    BN
 Framework group  C*V[C*(BN)]
 Deg. of freedom     1
 Full point group                 C*V     NOp   4
 Largest Abelian subgroup         C2V     NOp   4
 Largest concise Abelian subgroup C1      NOp   1
                         Standard orientation:                         
 ---------------------------------------------------------------------
 Center     Atomic      Atomic             Coordinates (Angstroms)
 Number     Number       Type             X           Y           Z
 ---------------------------------------------------------------------
      1          5           0        0.000000    0.000000   -0.748417
      2          7           0        0.000000    0.000000    0.534583
 ---------------------------------------------------------------------
 Rotational constants (GHZ):           0.0000000          49.8121851          49.8121851
 Leave Link  202 at Sun Apr 18 03:14:18 2021, MaxMem=   104857600 cpu:               6.0 elap:               0.1
 (Enter /s/ls4/users/knvvv/bin/g16sse/l301.exe)
 Standard basis: def2QZVP (5D, 7F)
 Ernie: Thresh=  0.10000D-02 Tol=  0.10000D-05 Strict=F.
 There are    64 symmetry adapted cartesian basis functions of A1  symmetry.
 There are    16 symmetry adapted cartesian basis functions of A2  symmetry.
 There are    32 symmetry adapted cartesian basis functions of B1  symmetry.
 There are    32 symmetry adapted cartesian basis functions of B2  symmetry.
 There are    48 symmetry adapted basis functions of A1  symmetry.
 There are    14 symmetry adapted basis functions of A2  symmetry.
 There are    26 symmetry adapted basis functions of B1  symmetry.
 There are    26 symmetry adapted basis functions of B2  symmetry.
   114 basis functions,   184 primitive gaussians,   144 cartesian basis functions
     6 alpha electrons        6 beta electrons
       nuclear repulsion energy        14.4358553252 Hartrees.
 IExCor= 4336 DFT=T Ex+Corr=M062X ExCW=0 ScaHFX=  0.540000
 ScaDFX=  1.000000  1.000000  1.000000  1.000000 ScalE2=  1.000000  1.000000
 IRadAn=      5 IRanWt=     -1 IRanGd=            0 ICorTp=0 IEmpDi=  4
 NAtoms=    2 NActive=    2 NUniq=    2 SFac= 1.00D+00 NAtFMM=   60 NAOKFM=F Big=F
 Integral buffers will be    131072 words long.
 Raffenetti 2 integral format.
 Two-electron integral symmetry is turned on.
 Leave Link  301 at Sun Apr 18 03:14:18 2021, MaxMem=   104857600 cpu:               6.3 elap:               0.2
 (Enter /s/ls4/users/knvvv/bin/g16sse/l302.exe)
 NPDir=0 NMtPBC=     1 NCelOv=     1 NCel=       1 NClECP=     1 NCelD=      1
         NCelK=      1 NCelE2=     1 NClLst=     1 CellRange=     0.0.
 One-electron integrals computed using PRISM.
 One-electron integral symmetry used in STVInt
 PrsmSu:  requested number of processors reduced to:   4 ShMem   1 Linda.
 PrsmSu:  requested number of processors reduced to:  21 ShMem   1 Linda.
   4 Symmetry operations used in ECPInt.
 ECPInt:  NShTT=     595 NPrTT=    1789 LenC2=     596 LenP2D=    1659.
 LDataN:  DoStor=T MaxTD1= 8 Len=  415
 Number of processors reduced to  42 by ecpmxn.
 NBasis=   114 RedAO= T EigKep=  1.31D-04  NBF=    48    14    26    26
 NBsUse=   114 1.00D-06 EigRej= -1.00D+00 NBFU=    48    14    26    26
 Precomputing XC quadrature grid using
 IXCGrd= 4 IRadAn=           5 IRanWt=          -1 IRanGd=           0 AccXCQ= 0.00D+00.
 Generated NRdTot=       0 NPtTot=           0 NUsed=           0 NTot=          32
 NSgBfM=   144   144   144   144   144 MxSgAt=     2 MxSgA2=     2.
 Leave Link  302 at Sun Apr 18 03:14:20 2021, MaxMem=   104857600 cpu:             118.8 elap:               2.6
 (Enter /s/ls4/users/knvvv/bin/g16sse/l303.exe)
 DipDrv:  MaxL=1.
 Leave Link  303 at Sun Apr 18 03:14:21 2021, MaxMem=   104857600 cpu:              44.7 elap:               1.0
 (Enter /s/ls4/users/knvvv/bin/g16sse/l401.exe)
 SCF N**3 symmetry information disabled.
 ExpMin= 4.99D-02 ExpMax= 9.07D+04 ExpMxC= 8.76D+02 IAcc=3 IRadAn=         5 AccDes= 0.00D+00
 Harris functional with IExCor= 1009 and IRadAn=       5 diagonalized for initial guess.
 HarFok:  IExCor= 1009 AccDes= 0.00D+00 IRadAn=         5 IDoV= 1 UseB2=F ITyADJ=14
 ICtDFT=  3500011 ScaDFX=  1.000000  1.000000  1.000000  1.000000
 FoFCou: FMM=F IPFlag=           0 FMFlag=      100000 FMFlg1=           0
         NFxFlg=           0 DoJE=T BraDBF=F KetDBF=T FulRan=T
         wScrn=  0.000000 ICntrl=       500 IOpCl=  0 I1Cent=   200000004 NGrid=           0
         NMat0=    1 NMatS0=      1 NMatT0=    0 NMatD0=    1 NMtDS0=    0 NMtDT0=    0
 Petite list used in FoFCou.
 CoulSu:  requested number of processors reduced to:  21 ShMem   1 Linda.
 CoulSu:  requested number of processors reduced to:  21 ShMem   1 Linda.
 CoulSu:  requested number of processors reduced to:  21 ShMem   1 Linda.
 CoulSu:  requested number of processors reduced to:  21 ShMem   1 Linda.
 Harris En= -79.4177091316596    
 JPrj=0 DoOrth=F DoCkMO=F.
 Initial guess orbital symmetries:
       Occupied  (SG) (SG) (SG) (SG) (PI) (PI)
       Virtual   (SG) (PI) (PI) (SG) (SG) (PI) (PI) (SG) (PI) (PI)
                 (DLTA) (DLTA) (SG) (PI) (PI) (SG) (PI) (PI) (SG)
                 (SG) (DLTA) (DLTA) (SG) (PI) (PI) (PHI) (PHI)
                 (PI) (PI) (DLTA) (DLTA) (SG) (SG) (DLTA) (DLTA)
                 (PI) (PI) (SG) (PI) (PI) (SG) (PI) (PI) (SG) (PHI)
                 (PHI) (DLTA) (DLTA) (SG) (PI) (PI) (DLTA) (DLTA)
                 (?A) (?A) (SG) (PI) (PI) (PHI) (PHI) (DLTA) (DLTA)
                 (PI) (PI) (DLTA) (DLTA) (PHI) (PHI) (SG) (SG)
                 (PI) (PI) (PI) (PI) (SG) (DLTA) (DLTA) (SG) (SG)
                 (PI) (PI) (SG) (?A) (?A) (PHI) (PHI) (DLTA) (DLTA)
                 (PI) (PI) (SG) (PHI) (PHI) (DLTA) (DLTA) (DLTA)
                 (DLTA) (PI) (PI) (SG) (SG) (PI) (PI) (SG) (SG)
                 (SG) (SG) (SG)
 The electronic state of the initial guess is 1-SG.
 Leave Link  401 at Sun Apr 18 03:14:23 2021, MaxMem=   104857600 cpu:              77.8 elap:               1.9
 (Enter /s/ls4/users/knvvv/bin/g16sse/l502.exe)
 Keep R1 ints in memory in symmetry-blocked form, NReq=75743936.
 FoFCou: FMM=F IPFlag=           0 FMFlag=           0 FMFlg1=           0
         NFxFlg=           0 DoJE=F BraDBF=F KetDBF=F FulRan=T
         wScrn=  0.000000 ICntrl=       600 IOpCl=  0 I1Cent=           0 NGrid=           0
         NMat0=    1 NMatS0=   6555 NMatT0=    0 NMatD0=    1 NMtDS0=    0 NMtDT0=    0
 Petite list used in FoFCou.
 CoulSu:  requested number of processors reduced to:  18 ShMem   1 Linda.
 Closed shell SCF:
 Using DIIS extrapolation, IDIIS=  1040.
 NGot=   104857600 LenX=    99313488 LenY=    99292311
 Requested convergence on RMS density matrix=1.00D-08 within 128 cycles.
 Requested convergence on MAX density matrix=1.00D-06.
 Requested convergence on             energy=1.00D-06.
 No special actions if energy rises.

 Cycle   1  Pass 1  IDiag  1:
 E= -79.0790317992771    
 DIIS: error= 9.70D-02 at cycle   1 NSaved=   1.
 NSaved= 1 IEnMin= 1 EnMin= -79.0790317992771     IErMin= 1 ErrMin= 9.70D-02
 ErrMax= 9.70D-02  0.00D+00 EMaxC= 1.00D-01 BMatC= 3.08D-01 BMatP= 3.08D-01
 IDIUse=3 WtCom= 2.96D-02 WtEn= 9.70D-01
 Coeff-Com:  0.100D+01
 Coeff-En:   0.100D+01
 Coeff:      0.100D+01
 Gap=    -0.186 Goal=   None    Shift=    0.000
 GapD=   -0.186 DampG=0.250 DampE=0.500 DampFc=0.2500 IDamp=-1.
 Damping current iteration by 2.50D-01
 RMSDP=7.24D-03 MaxDP=2.35D-01              OVMax= 8.90D-01

 Cycle   2  Pass 1  IDiag  1:
 E= -79.1548643453231     Delta-E=       -0.075832546046 Rises=F Damp=T
 DIIS: error= 2.77D-02 at cycle   2 NSaved=   2.
 NSaved= 2 IEnMin= 2 EnMin= -79.1548643453231     IErMin= 2 ErrMin= 2.77D-02
 ErrMax= 2.77D-02  0.00D+00 EMaxC= 1.00D-01 BMatC= 3.41D-02 BMatP= 3.08D-01
 IDIUse=3 WtCom= 7.23D-01 WtEn= 2.77D-01
 Coeff-Com: -0.564D-01 0.106D+01
 Coeff-En:   0.334D+00 0.666D+00
 Coeff:      0.515D-01 0.948D+00
 Gap=    -0.027 Goal=   None    Shift=    0.000
 RMSDP=1.59D-03 MaxDP=4.77D-02 DE=-7.58D-02 OVMax= 7.80D-01

 Cycle   3  Pass 1  IDiag  1:
 E= -79.3693982025892     Delta-E=       -0.214533857266 Rises=F Damp=F
 DIIS: error= 1.58D-02 at cycle   3 NSaved=   3.
 NSaved= 3 IEnMin= 3 EnMin= -79.3693982025892     IErMin= 3 ErrMin= 1.58D-02
 ErrMax= 1.58D-02  0.00D+00 EMaxC= 1.00D-01 BMatC= 8.02D-03 BMatP= 3.41D-02
 IDIUse=3 WtCom= 8.42D-01 WtEn= 1.58D-01
 Coeff-Com: -0.432D-01 0.317D+00 0.726D+00
 Coeff-En:   0.000D+00 0.000D+00 0.100D+01
 Coeff:     -0.364D-01 0.267D+00 0.770D+00
 Gap=     0.147 Goal=   None    Shift=    0.000
 RMSDP=7.12D-04 MaxDP=2.79D-02 DE=-2.15D-01 OVMax= 7.40D-02

 Cycle   4  Pass 1  IDiag  1:
 E= -79.3786454063007     Delta-E=       -0.009247203711 Rises=F Damp=F
 DIIS: error= 5.90D-03 at cycle   4 NSaved=   4.
 NSaved= 4 IEnMin= 4 EnMin= -79.3786454063007     IErMin= 4 ErrMin= 5.90D-03
 ErrMax= 5.90D-03  0.00D+00 EMaxC= 1.00D-01 BMatC= 1.08D-03 BMatP= 8.02D-03
 IDIUse=3 WtCom= 9.41D-01 WtEn= 5.90D-02
 Coeff-Com:  0.436D-01-0.395D-01 0.121D+00 0.875D+00
 Coeff-En:   0.000D+00 0.000D+00 0.000D+00 0.100D+01
 Coeff:      0.410D-01-0.372D-01 0.114D+00 0.883D+00
 Gap=     0.164 Goal=   None    Shift=    0.000
 RMSDP=1.82D-04 MaxDP=5.88D-03 DE=-9.25D-03 OVMax= 1.50D-02

 Cycle   5  Pass 1  IDiag  1:
 E= -79.3797250561331     Delta-E=       -0.001079649832 Rises=F Damp=F
 DIIS: error= 4.57D-03 at cycle   5 NSaved=   5.
 NSaved= 5 IEnMin= 5 EnMin= -79.3797250561331     IErMin= 5 ErrMin= 4.57D-03
 ErrMax= 4.57D-03  0.00D+00 EMaxC= 1.00D-01 BMatC= 3.84D-04 BMatP= 1.08D-03
 IDIUse=3 WtCom= 9.54D-01 WtEn= 4.57D-02
 Coeff-Com:  0.369D-01-0.400D-01 0.105D-01 0.468D-01 0.946D+00
 Coeff-En:   0.000D+00 0.000D+00 0.000D+00 0.000D+00 0.100D+01
 Coeff:      0.352D-01-0.382D-01 0.100D-01 0.447D-01 0.948D+00
 Gap=     0.168 Goal=   None    Shift=    0.000
 RMSDP=8.15D-05 MaxDP=1.18D-03 DE=-1.08D-03 OVMax= 7.52D-03

 Cycle   6  Pass 1  IDiag  1:
 E= -79.3801412431517     Delta-E=       -0.000416187019 Rises=F Damp=F
 DIIS: error= 2.13D-03 at cycle   6 NSaved=   6.
 NSaved= 6 IEnMin= 6 EnMin= -79.3801412431517     IErMin= 6 ErrMin= 2.13D-03
 ErrMax= 2.13D-03  0.00D+00 EMaxC= 1.00D-01 BMatC= 8.59D-05 BMatP= 3.84D-04
 IDIUse=3 WtCom= 9.79D-01 WtEn= 2.13D-02
 Coeff-Com:  0.584D-02-0.904D-02 0.279D-01-0.350D-01-0.431D+00 0.144D+01
 Coeff-En:   0.000D+00 0.000D+00 0.000D+00 0.000D+00 0.000D+00 0.100D+01
 Coeff:      0.572D-02-0.885D-02 0.273D-01-0.342D-01-0.421D+00 0.143D+01
 Gap=     0.170 Goal=   None    Shift=    0.000
 RMSDP=6.84D-05 MaxDP=1.66D-03 DE=-4.16D-04 OVMax= 8.10D-03

 Cycle   7  Pass 1  IDiag  1:
 E= -79.3802809195566     Delta-E=       -0.000139676405 Rises=F Damp=F
 DIIS: error= 1.05D-03 at cycle   7 NSaved=   7.
 NSaved= 7 IEnMin= 7 EnMin= -79.3802809195566     IErMin= 7 ErrMin= 1.05D-03
 ErrMax= 1.05D-03  0.00D+00 EMaxC= 1.00D-01 BMatC= 1.97D-05 BMatP= 8.59D-05
 IDIUse=3 WtCom= 9.89D-01 WtEn= 1.05D-02
 Coeff-Com:  0.727D-03 0.622D-03 0.430D-02 0.245D-01-0.137D+00-0.517D+00
 Coeff-Com:  0.162D+01
 Coeff-En:   0.000D+00 0.000D+00 0.000D+00 0.000D+00 0.000D+00 0.000D+00
 Coeff-En:   0.100D+01
 Coeff:      0.719D-03 0.615D-03 0.425D-02 0.243D-01-0.136D+00-0.511D+00
 Coeff:      0.162D+01
 Gap=     0.171 Goal=   None    Shift=    0.000
 RMSDP=5.80D-05 MaxDP=1.99D-03 DE=-1.40D-04 OVMax= 5.74D-03

 Cycle   8  Pass 1  IDiag  1:
 E= -79.3803208520803     Delta-E=       -0.000039932524 Rises=F Damp=F
 DIIS: error= 7.94D-05 at cycle   8 NSaved=   8.
 NSaved= 8 IEnMin= 8 EnMin= -79.3803208520803     IErMin= 8 ErrMin= 7.94D-05
 ErrMax= 7.94D-05  0.00D+00 EMaxC= 1.00D-01 BMatC= 1.36D-07 BMatP= 1.97D-05
 IDIUse=1 WtCom= 1.00D+00 WtEn= 0.00D+00
 Coeff-Com: -0.246D-03 0.317D-03-0.135D-02 0.186D-02 0.457D-01-0.719D-01
 Coeff-Com: -0.181D+00 0.121D+01
 Coeff:     -0.246D-03 0.317D-03-0.135D-02 0.186D-02 0.457D-01-0.719D-01
 Coeff:     -0.181D+00 0.121D+01
 Gap=     0.171 Goal=   None    Shift=    0.000
 RMSDP=1.24D-05 MaxDP=5.95D-04 DE=-3.99D-05 OVMax= 1.27D-03

 Cycle   9  Pass 1  IDiag  1:
 E= -79.3803216028222     Delta-E=       -0.000000750742 Rises=F Damp=F
 DIIS: error= 4.62D-06 at cycle   9 NSaved=   9.
 NSaved= 9 IEnMin= 9 EnMin= -79.3803216028222     IErMin= 9 ErrMin= 4.62D-06
 ErrMax= 4.62D-06  0.00D+00 EMaxC= 1.00D-01 BMatC= 1.75D-09 BMatP= 1.36D-07
 IDIUse=1 WtCom= 1.00D+00 WtEn= 0.00D+00
 Coeff-Com:  0.410D-04-0.683D-04-0.210D-03-0.446D-03 0.470D-03 0.126D-01
 Coeff-Com: -0.160D-01-0.168D+00 0.117D+01
 Coeff:      0.410D-04-0.683D-04-0.210D-03-0.446D-03 0.470D-03 0.126D-01
 Coeff:     -0.160D-01-0.168D+00 0.117D+01
 Gap=     0.171 Goal=   None    Shift=    0.000
 RMSDP=2.21D-06 MaxDP=1.24D-04 DE=-7.51D-07 OVMax= 1.59D-04

 Cycle  10  Pass 1  IDiag  1:
 E= -79.3803216093577     Delta-E=       -0.000000006535 Rises=F Damp=F
 DIIS: error= 2.67D-06 at cycle  10 NSaved=  10.
 NSaved=10 IEnMin=10 EnMin= -79.3803216093577     IErMin=10 ErrMin= 2.67D-06
 ErrMax= 2.67D-06  0.00D+00 EMaxC= 1.00D-01 BMatC= 2.44D-10 BMatP= 1.75D-09
 IDIUse=1 WtCom= 1.00D+00 WtEn= 0.00D+00
 Coeff-Com:  0.232D-04-0.237D-04 0.103D-03 0.182D-03-0.151D-02-0.862D-03
 Coeff-Com:  0.554D-02 0.296D-01-0.145D+00 0.111D+01
 Coeff:      0.232D-04-0.237D-04 0.103D-03 0.182D-03-0.151D-02-0.862D-03
 Coeff:      0.554D-02 0.296D-01-0.145D+00 0.111D+01
 Gap=     0.171 Goal=   None    Shift=    0.000
 RMSDP=1.82D-07 MaxDP=5.81D-06 DE=-6.54D-09 OVMax= 2.54D-05

 Cycle  11  Pass 1  IDiag  1:
 E= -79.3803216096120     Delta-E=       -0.000000000254 Rises=F Damp=F
 DIIS: error= 1.73D-06 at cycle  11 NSaved=  11.
 NSaved=11 IEnMin=11 EnMin= -79.3803216096120     IErMin=11 ErrMin= 1.73D-06
 ErrMax= 1.73D-06  0.00D+00 EMaxC= 1.00D-01 BMatC= 6.69D-11 BMatP= 2.44D-10
 IDIUse=1 WtCom= 1.00D+00 WtEn= 0.00D+00
 Coeff-Com:  0.497D-05-0.616D-05 0.139D-04 0.281D-04-0.634D-06-0.272D-03
 Coeff-Com: -0.115D-02 0.596D-02-0.153D-01-0.253D-01 0.104D+01
 Coeff:      0.497D-05-0.616D-05 0.139D-04 0.281D-04-0.634D-06-0.272D-03
 Coeff:     -0.115D-02 0.596D-02-0.153D-01-0.253D-01 0.104D+01
 Gap=     0.171 Goal=   None    Shift=    0.000
 RMSDP=4.74D-08 MaxDP=1.29D-06 DE=-2.54D-10 OVMax= 4.61D-06

 Cycle  12  Pass 1  IDiag  1:
 E= -79.3803216096845     Delta-E=       -0.000000000073 Rises=F Damp=F
 DIIS: error= 3.65D-07 at cycle  12 NSaved=  12.
 NSaved=12 IEnMin=12 EnMin= -79.3803216096845     IErMin=12 ErrMin= 3.65D-07
 ErrMax= 3.65D-07  0.00D+00 EMaxC= 1.00D-01 BMatC= 3.47D-12 BMatP= 6.69D-11
 IDIUse=1 WtCom= 1.00D+00 WtEn= 0.00D+00
 Coeff-Com:  0.604D-06-0.750D-06 0.104D-05-0.506D-05 0.273D-04 0.591D-04
 Coeff-Com: -0.431D-04-0.914D-03 0.644D-02-0.347D-01-0.261D+00 0.129D+01
 Coeff:      0.604D-06-0.750D-06 0.104D-05-0.506D-05 0.273D-04 0.591D-04
 Coeff:     -0.431D-04-0.914D-03 0.644D-02-0.347D-01-0.261D+00 0.129D+01
 Gap=     0.171 Goal=   None    Shift=    0.000
 RMSDP=6.40D-09 MaxDP=1.75D-07 DE=-7.26D-11 OVMax= 6.24D-07

 SCF Done:  E(RM062X) =  -79.3803216097     A.U. after   12 cycles
            NFock= 12  Conv=0.64D-08     -V/T= 2.0045
 KE= 7.902193314724D+01 PE=-2.143358059625D+02 EE= 4.149769588039D+01
 Leave Link  502 at Sun Apr 18 03:14:52 2021, MaxMem=   104857600 cpu:            1319.9 elap:              28.5
 (Enter /s/ls4/users/knvvv/bin/g16sse/l601.exe)
 Copying SCF densities to generalized density rwf, IOpCl= 0 IROHF=0.

 **********************************************************************

            Population analysis using the SCF density.

 **********************************************************************

 Orbital symmetries:
       Occupied  (SG) (SG) (SG) (SG) (PI) (PI)
       Virtual   (SG) (PI) (PI) (SG) (SG) (PI) (PI) (SG) (DLTA)
                 (DLTA) (PI) (PI) (SG) (PI) (PI) (SG) (PI) (PI)
                 (SG) (SG) (DLTA) (DLTA) (SG) (PI) (PI) (PHI) (PHI)
                 (DLTA) (DLTA) (PI) (PI) (SG) (SG) (DLTA) (DLTA)
                 (PI) (PI) (SG) (PI) (PI) (SG) (PI) (PI) (SG) (PHI)
                 (PHI) (SG) (DLTA) (DLTA) (PI) (PI) (DLTA) (DLTA)
                 (?A) (?A) (SG) (PI) (PI) (PHI) (PHI) (DLTA) (DLTA)
                 (SG) (PI) (PI) (DLTA) (DLTA) (PHI) (PHI) (SG)
                 (PI) (PI) (PI) (PI) (DLTA) (DLTA) (SG) (SG) (SG)
                 (PI) (PI) (SG) (?A) (?A) (PHI) (PHI) (DLTA) (DLTA)
                 (PI) (PI) (SG) (PHI) (PHI) (DLTA) (DLTA) (PI)
                 (PI) (DLTA) (DLTA) (SG) (SG) (PI) (PI) (SG) (SG)
                 (SG) (SG) (SG)
 The electronic state is 1-SG.
 Alpha  occ. eigenvalues --  -14.78960  -7.15874  -0.90255  -0.42853  -0.36718
 Alpha  occ. eigenvalues --   -0.36718
 Alpha virt. eigenvalues --   -0.19634   0.02430   0.02430   0.05300   0.10355
 Alpha virt. eigenvalues --    0.10365   0.10365   0.25511   0.31249   0.31249
 Alpha virt. eigenvalues --    0.32279   0.32279   0.34212   0.42153   0.42153
 Alpha virt. eigenvalues --    0.44753   0.50654   0.50654   0.56880   0.74276
 Alpha virt. eigenvalues --    0.86526   0.86526   0.97385   1.04347   1.04347
 Alpha virt. eigenvalues --    1.06752   1.06752   1.12639   1.12640   1.15496
 Alpha virt. eigenvalues --    1.15496   1.18045   1.28376   1.29262   1.29262
 Alpha virt. eigenvalues --    1.29968   1.29968   1.53175   1.58421   1.58421
 Alpha virt. eigenvalues --    1.69159   1.97150   1.97150   2.28540   2.47616
 Alpha virt. eigenvalues --    2.47616   2.67625   2.67916   2.67916   2.86854
 Alpha virt. eigenvalues --    2.86854   3.01457   3.01457   3.09387   3.09387
 Alpha virt. eigenvalues --    3.22024   3.25862   3.25862   3.29380   3.29380
 Alpha virt. eigenvalues --    3.48958   3.48958   3.55130   3.56872   3.56872
 Alpha virt. eigenvalues --    3.57430   3.57436   3.61067   3.61067   3.68926
 Alpha virt. eigenvalues --    3.96212   3.96212   4.00569   4.00569   4.10425
 Alpha virt. eigenvalues --    4.10426   4.13822   4.35234   5.21429   5.47598
 Alpha virt. eigenvalues --    5.47598   6.23301   6.76009   6.76009   6.94075
 Alpha virt. eigenvalues --    6.94075   7.44792   7.44792   7.55190   7.55190
 Alpha virt. eigenvalues --    7.63924   8.34778   8.34778   8.65066   8.65067
 Alpha virt. eigenvalues --    8.95812   8.95812   9.01079   9.01080   9.02751
 Alpha virt. eigenvalues --    9.72941   9.86447   9.86447  10.79227  19.32760
 Alpha virt. eigenvalues --   37.05548 100.74981 194.54105
          Condensed to atoms (all electrons):
               1          2
     1  B    3.682546   0.925162
     2  N    0.925162   6.467131
 Mulliken charges:
               1
     1  B    0.392292
     2  N   -0.392292
 Sum of Mulliken charges =  -0.00000
 Mulliken charges with hydrogens summed into heavy atoms:
               1
     1  B    0.392292
     2  N   -0.392292
 Electronic spatial extent (au):  <R**2>=             40.6470
 Charge=             -0.0000 electrons
 Dipole moment (field-independent basis, Debye):
    X=              0.0000    Y=              0.0000    Z=             -3.5153  Tot=              3.5153
 Quadrupole moment (field-independent basis, Debye-Ang):
   XX=            -12.0599   YY=            -12.0599   ZZ=             -7.4912
   XY=             -0.0000   XZ=              0.0000   YZ=              0.0000
 Traceless Quadrupole moment (field-independent basis, Debye-Ang):
   XX=             -1.5229   YY=             -1.5229   ZZ=              3.0458
   XY=             -0.0000   XZ=              0.0000   YZ=              0.0000
 Octapole moment (field-independent basis, Debye-Ang**2):
  XXX=              0.0000  YYY=              0.0000  ZZZ=             -3.7100  XYY=              0.0000
  XXY=             -0.0000  XXZ=              0.2379  XZZ=              0.0000  YZZ=             -0.0000
  YYZ=              0.2379  XYZ=             -0.0000
 Hexadecapole moment (field-independent basis, Debye-Ang**3):
 XXXX=            -15.3626 YYYY=            -15.3626 ZZZZ=            -31.2682 XXXY=             -0.0000
 XXXZ=              0.0000 YYYX=             -0.0000 YYYZ=              0.0000 ZZZX=              0.0000
 ZZZY=              0.0000 XXYY=             -5.1209 XXZZ=             -8.5593 YYZZ=             -8.5593
 XXYZ=              0.0000 YYXZ=              0.0000 ZZXY=             -0.0000
 N-N= 1.443585532518D+01 E-N=-2.143358117730D+02  KE= 7.902193314724D+01
 PrsmSu:  requested number of processors reduced to:  21 ShMem   1 Linda.
 No NMR shielding tensors so no spin-rotation constants.
 Leave Link  601 at Sun Apr 18 03:14:53 2021, MaxMem=   104857600 cpu:              56.5 elap:               1.3
 (Enter /s/ls4/users/knvvv/bin/g16sse/l801.exe)
 DoSCS=F DFT=T ScalE2(SS,OS)=  1.000000  1.000000
 Range of M.O.s used for correlation:     1   114
 NBasis=   114 NAE=     6 NBE=     6 NFC=     0 NFV=     0
 NROrb=    114 NOA=     6 NOB=     6 NVA=   108 NVB=   108

 **** Warning!!: The largest alpha MO coefficient is  0.19017252D+02

 Leave Link  801 at Sun Apr 18 03:14:53 2021, MaxMem=   104857600 cpu:               3.5 elap:               0.1
 (Enter /s/ls4/users/knvvv/bin/g16sse/l914.exe)
 RHF ground state
 Doing stability rather than CIS.
 Two-electron integrals replicated using symmetry.
 MDV=   104857600 DFT=T DoStab=T Mixed=T DoRPA=F DoScal=F NonHer=F
 Making orbital integer symmetry assigments:
 Orbital symmetries:
       Occupied  (SG) (SG) (SG) (SG) (PI) (PI)
       Virtual   (SG) (PI) (PI) (SG) (SG) (PI) (PI) (SG) (DLTA)
                 (DLTA) (PI) (PI) (SG) (PI) (PI) (SG) (PI) (PI)
                 (SG) (SG) (DLTA) (DLTA) (SG) (PI) (PI) (PHI) (PHI)
                 (DLTA) (DLTA) (PI) (PI) (SG) (SG) (DLTA) (DLTA)
                 (PI) (PI) (SG) (PI) (PI) (SG) (PI) (PI) (SG) (PHI)
                 (PHI) (SG) (DLTA) (DLTA) (PI) (PI) (DLTA) (DLTA)
                 (?A) (?A) (SG) (PI) (PI) (PHI) (PHI) (DLTA) (DLTA)
                 (SG) (PI) (PI) (DLTA) (DLTA) (PHI) (PHI) (SG)
                 (PI) (PI) (PI) (PI) (DLTA) (DLTA) (SG) (SG) (SG)
                 (PI) (PI) (SG) (?A) (?A) (PHI) (PHI) (DLTA) (DLTA)
                 (PI) (PI) (SG) (PHI) (PHI) (DLTA) (DLTA) (PI)
                 (PI) (DLTA) (DLTA) (SG) (SG) (PI) (PI) (SG) (SG)
                 (SG) (SG) (SG)
    24 initial guesses have been made.
 Convergence on wavefunction:    0.001000000000000
 Davidson Disk Diagonalization:  ConvIn= 1.00D-03 SkipCon=T Conv= 1.00D-03.
 Max sub-space:  2000 roots to seek:    24 dimension of matrix:         1296
 Iteration     1 Dimension    24 NMult     0 NNew     24
 Estimated number of processors is:   20
 CISAX will form     1 AO SS matrices at one time.
 NMat=     1 NSing=     1 JSym2X= 2.
 FoFJK:  IHMeth= 1 ICntrl=       0 DoSepK=F KAlg= 0 I1Cent=           0 FoldK=F
 IRaf= 990000000 NMat=       1 IRICut=       1 DoRegI=T DoRafI=F ISym2E= 2 IDoP0=0 IntGTp=1.
 FoFCou: FMM=F IPFlag=           0 FMFlag=      100000 FMFlg1=           0
         NFxFlg=           0 DoJE=F BraDBF=F KetDBF=F FulRan=T
         wScrn=  0.000000 ICntrl=         0 IOpCl=  0 I1Cent=           0 NGrid=           0
         NMat0=    1 NMatS0=      1 NMatT0=    0 NMatD0=    1 NMtDS0=    0 NMtDT0=    0
 Integrals replicated using symmetry in FoFCou.
 CoulSu:  requested number of processors reduced to:  21 ShMem   1 Linda.
 NMat=     1 NSing=     1 JSym2X= 2.
 CoulSu:  requested number of processors reduced to:  21 ShMem   1 Linda.
 NMat=     1 NSing=     1 JSym2X= 2.
 CoulSu:  requested number of processors reduced to:  21 ShMem   1 Linda.
 NMat=     1 NSing=     1 JSym2X= 2.
 CoulSu:  requested number of processors reduced to:  21 ShMem   1 Linda.
 NMat=     1 NSing=     1 JSym2X= 2.
 CoulSu:  requested number of processors reduced to:  21 ShMem   1 Linda.
 NMat=     1 NSing=     1 JSym2X= 2.
 CoulSu:  requested number of processors reduced to:  21 ShMem   1 Linda.
 NMat=     1 NSing=     1 JSym2X= 2.
 CoulSu:  requested number of processors reduced to:  21 ShMem   1 Linda.
 NMat=     1 NSing=     1 JSym2X= 2.
 CoulSu:  requested number of processors reduced to:  21 ShMem   1 Linda.
 NMat=     1 NSing=     1 JSym2X= 2.
 CoulSu:  requested number of processors reduced to:  21 ShMem   1 Linda.
 NMat=     1 NSing=     1 JSym2X= 2.
 CoulSu:  requested number of processors reduced to:  21 ShMem   1 Linda.
 NMat=     1 NSing=     1 JSym2X= 2.
 CoulSu:  requested number of processors reduced to:  21 ShMem   1 Linda.
 NMat=     1 NSing=     1 JSym2X= 2.
 CoulSu:  requested number of processors reduced to:  21 ShMem   1 Linda.
 NMat=     1 NSing=     0 JSym2X= 2.
 CoulSu:  requested number of processors reduced to:  21 ShMem   1 Linda.
 NMat=     1 NSing=     0 JSym2X= 2.
 CoulSu:  requested number of processors reduced to:  21 ShMem   1 Linda.
 NMat=     1 NSing=     0 JSym2X= 2.
 CoulSu:  requested number of processors reduced to:  21 ShMem   1 Linda.
 NMat=     1 NSing=     0 JSym2X= 2.
 CoulSu:  requested number of processors reduced to:  21 ShMem   1 Linda.
 NMat=     1 NSing=     0 JSym2X= 2.
 CoulSu:  requested number of processors reduced to:  21 ShMem   1 Linda.
 NMat=     1 NSing=     0 JSym2X= 2.
 CoulSu:  requested number of processors reduced to:  21 ShMem   1 Linda.
 NMat=     1 NSing=     0 JSym2X= 2.
 CoulSu:  requested number of processors reduced to:  21 ShMem   1 Linda.
 NMat=     1 NSing=     0 JSym2X= 2.
 CoulSu:  requested number of processors reduced to:  21 ShMem   1 Linda.
 NMat=     1 NSing=     0 JSym2X= 2.
 CoulSu:  requested number of processors reduced to:  21 ShMem   1 Linda.
 NMat=     1 NSing=     0 JSym2X= 2.
 CoulSu:  requested number of processors reduced to:  21 ShMem   1 Linda.
 NMat=     1 NSing=     0 JSym2X= 2.
 CoulSu:  requested number of processors reduced to:  21 ShMem   1 Linda.
 NMat=     1 NSing=     0 JSym2X= 2.
 CoulSu:  requested number of processors reduced to:  21 ShMem   1 Linda.
 New state      1 was old state      6
 Excitation Energies [eV] at current iteration:
 Root      1 :    -1.793031957067930
 Root      2 :    -1.087221552041979
 Root      3 :    -1.063751267110007
 Root      4 :     0.374045473160907
 Root      5 :     0.395457422772038
 Root      6 :     3.562491802022568
 Root      7 :     5.412838877724179
 Root      8 :     5.774600198953881
 Root      9 :     5.774744252024228
 Root     10 :     6.632168350791194
 Root     11 :     6.632320187161643
 Root     12 :     7.129064099826012
 Root     13 :     7.129064099826309
 Root     14 :     7.859997469482099
 Root     15 :     7.922446249871737
 Root     16 :     9.223272208731078
 Root     17 :     9.227269474952763
 Root     18 :     9.232348224987028
 Root     19 :     9.244815229142080
 Root     20 :     9.657639797247286
 Root     21 :    10.092018924327620
 Root     22 :    10.249576200023510
 Root     23 :    10.467849034990070
 Root     24 :    26.232042620695650
 Iteration     2 Dimension    48 NMult    24 NNew     24
 Estimated number of processors is:   20
 CISAX will form     1 AO SS matrices at one time.
 NMat=     1 NSing=     1 JSym2X= 2.
 CoulSu:  requested number of processors reduced to:  21 ShMem   1 Linda.
 NMat=     1 NSing=     1 JSym2X= 2.
 CoulSu:  requested number of processors reduced to:  21 ShMem   1 Linda.
 NMat=     1 NSing=     1 JSym2X= 2.
 CoulSu:  requested number of processors reduced to:  21 ShMem   1 Linda.
 NMat=     1 NSing=     1 JSym2X= 2.
 CoulSu:  requested number of processors reduced to:  21 ShMem   1 Linda.
 NMat=     1 NSing=     1 JSym2X= 2.
 CoulSu:  requested number of processors reduced to:  21 ShMem   1 Linda.
 NMat=     1 NSing=     1 JSym2X= 2.
 CoulSu:  requested number of processors reduced to:  21 ShMem   1 Linda.
 NMat=     1 NSing=     1 JSym2X= 2.
 CoulSu:  requested number of processors reduced to:  21 ShMem   1 Linda.
 NMat=     1 NSing=     1 JSym2X= 2.
 CoulSu:  requested number of processors reduced to:  21 ShMem   1 Linda.
 NMat=     1 NSing=     1 JSym2X= 2.
 CoulSu:  requested number of processors reduced to:  21 ShMem   1 Linda.
 NMat=     1 NSing=     1 JSym2X= 2.
 CoulSu:  requested number of processors reduced to:  21 ShMem   1 Linda.
 NMat=     1 NSing=     1 JSym2X= 2.
 CoulSu:  requested number of processors reduced to:  21 ShMem   1 Linda.
 NMat=     1 NSing=     1 JSym2X= 2.
 CoulSu:  requested number of processors reduced to:  21 ShMem   1 Linda.
 NMat=     1 NSing=     0 JSym2X= 2.
 CoulSu:  requested number of processors reduced to:  21 ShMem   1 Linda.
 NMat=     1 NSing=     0 JSym2X= 2.
 CoulSu:  requested number of processors reduced to:  21 ShMem   1 Linda.
 NMat=     1 NSing=     0 JSym2X= 2.
 CoulSu:  requested number of processors reduced to:  21 ShMem   1 Linda.
 NMat=     1 NSing=     0 JSym2X= 2.
 CoulSu:  requested number of processors reduced to:  21 ShMem   1 Linda.
 NMat=     1 NSing=     0 JSym2X= 2.
 CoulSu:  requested number of processors reduced to:  21 ShMem   1 Linda.
 NMat=     1 NSing=     0 JSym2X= 2.
 CoulSu:  requested number of processors reduced to:  21 ShMem   1 Linda.
 NMat=     1 NSing=     0 JSym2X= 2.
 CoulSu:  requested number of processors reduced to:  21 ShMem   1 Linda.
 NMat=     1 NSing=     0 JSym2X= 2.
 CoulSu:  requested number of processors reduced to:  21 ShMem   1 Linda.
 NMat=     1 NSing=     0 JSym2X= 2.
 CoulSu:  requested number of processors reduced to:  21 ShMem   1 Linda.
 NMat=     1 NSing=     0 JSym2X= 2.
 CoulSu:  requested number of processors reduced to:  21 ShMem   1 Linda.
 NMat=     1 NSing=     0 JSym2X= 2.
 CoulSu:  requested number of processors reduced to:  21 ShMem   1 Linda.
 NMat=     1 NSing=     0 JSym2X= 2.
 CoulSu:  requested number of processors reduced to:  21 ShMem   1 Linda.
 Root      1 not converged, maximum delta is    0.079765977285981
 Excitation Energies [eV] at current iteration:
 Root      1 :    -2.556324675591691   Change is   -0.763292718523761
 Root      2 :    -1.394789903626883   Change is   -0.307568351584905
 Root      3 :    -1.394546204432237   Change is   -0.330794937322230
 Root      4 :     0.257160758935698   Change is   -0.116884714225209
 Root      5 :     0.258408513990709   Change is   -0.137048908781330
 Root      6 :     2.915562529482003   Change is   -0.646929272540564
 Root      7 :     3.450533325346012   Change is   -1.962305552378167
 Root      8 :     4.630156192503118   Change is   -1.144444006450763
 Root      9 :     4.630570965973395   Change is   -1.144173286050833
 Root     10 :     6.130530073940358   Change is   -0.501638276850837
 Root     11 :     6.130848722088509   Change is   -0.501471465073133
 Root     12 :     6.807926051901868   Change is   -0.321138047924144
 Root     13 :     6.807926051903112   Change is   -0.321138047923196
 Root     14 :     6.922105910919650   Change is   -0.937891558562449
 Root     15 :     6.938571614827260   Change is   -0.983874635044477
 Root     16 :     9.073254373516651   Change is   -0.150017835214428
 Root     17 :     9.088796978734850   Change is   -0.143551246252178
 Root     18 :     9.099201327775599   Change is   -0.128068147177164
 Root     19 :     9.116871241848406   Change is   -0.127943987293676
 Root     20 :     9.350433886916697   Change is   -0.307205910330588
 Root     21 :     9.482037412072680   Change is   -0.767538787950834
 Root     22 :     9.765435063570539   Change is   -0.326583860757079
 Root     23 :     9.966451430756768   Change is   -0.501397604233300
 Root     24 :    10.443060028014910
 Iteration     3 Dimension    54 NMult    48 NNew      6
 Estimated number of processors is:   20
 CISAX will form     1 AO SS matrices at one time.
 NMat=     1 NSing=     1 JSym2X= 2.
 CoulSu:  requested number of processors reduced to:  21 ShMem   1 Linda.
 NMat=     1 NSing=     1 JSym2X= 2.
 CoulSu:  requested number of processors reduced to:  21 ShMem   1 Linda.
 NMat=     1 NSing=     1 JSym2X= 2.
 CoulSu:  requested number of processors reduced to:  21 ShMem   1 Linda.
 NMat=     1 NSing=     0 JSym2X= 2.
 CoulSu:  requested number of processors reduced to:  21 ShMem   1 Linda.
 NMat=     1 NSing=     0 JSym2X= 2.
 CoulSu:  requested number of processors reduced to:  21 ShMem   1 Linda.
 NMat=     1 NSing=     0 JSym2X= 2.
 CoulSu:  requested number of processors reduced to:  21 ShMem   1 Linda.
 Vector  12 SDiff=3.48D-03 TDiff=8.14D-01 assumed to be singlet.
 Vector  13 SDiff=8.14D-01 TDiff=3.48D-03 assumed to be triplet.
 Vector  24 SDiff=6.90D-01 TDiff=4.43D-04 assumed to be triplet.
 Vector  25 SDiff=4.43D-04 TDiff=6.90D-01 assumed to be singlet.
 Root      1 not converged, maximum delta is    0.005678856662842
 Excitation Energies [eV] at current iteration:
 Root      1 :    -2.566747674407967   Change is   -0.010422998816275
 Root      2 :    -1.396723734306603   Change is   -0.002177529874365
 Root      3 :    -1.396722340597015   Change is   -0.001932436970132
 Root      4 :     0.255620261478509   Change is   -0.001540497457188
 Root      5 :     0.255628032460019   Change is   -0.002780481530689
 Root      6 :     2.885190453612450   Change is   -0.030372075869553
 Iteration     4 Dimension    60 NMult    54 NNew      6
 Estimated number of processors is:   20
 CISAX will form     1 AO SS matrices at one time.
 NMat=     1 NSing=     1 JSym2X= 2.
 CoulSu:  requested number of processors reduced to:  21 ShMem   1 Linda.
 NMat=     1 NSing=     1 JSym2X= 2.
 CoulSu:  requested number of processors reduced to:  21 ShMem   1 Linda.
 NMat=     1 NSing=     1 JSym2X= 2.
 CoulSu:  requested number of processors reduced to:  21 ShMem   1 Linda.
 NMat=     1 NSing=     0 JSym2X= 2.
 CoulSu:  requested number of processors reduced to:  21 ShMem   1 Linda.
 NMat=     1 NSing=     0 JSym2X= 2.
 CoulSu:  requested number of processors reduced to:  21 ShMem   1 Linda.
 NMat=     1 NSing=     0 JSym2X= 2.
 CoulSu:  requested number of processors reduced to:  21 ShMem   1 Linda.
 Vector  12 SDiff=2.10D-02 TDiff=8.14D-01 assumed to be singlet.
 Vector  13 SDiff=8.14D-01 TDiff=2.10D-02 assumed to be triplet.
 Vector  24 SDiff=6.90D-01 TDiff=1.52D-02 assumed to be triplet.
 Vector  25 SDiff=1.52D-02 TDiff=6.90D-01 assumed to be singlet.
 Root      1 has converged.
 Excitation Energies [eV] at current iteration:
 Root      1 :    -2.566834200683775   Change is   -0.000086526275808
 Root      2 :    -1.396740956024545   Change is   -0.000018615427530
 Root      3 :    -1.396740954246588   Change is   -0.000017219939985
 Root      4 :     0.255612114574112   Change is   -0.000008146904397
 Root      5 :     0.255612253598121   Change is   -0.000015778861899
 Root      6 :     2.882866060974762   Change is   -0.002324392637688
 Convergence achieved on expansion vectors.
 ***********************************************************************
 Stability analysis using <AA,BB:AA,BB> singles matrix:
 ***********************************************************************
 1PDM for each excited state written to RWF  633
 Ground to excited state transition densities written to RWF  633

 Eigenvectors of the stability matrix:
 
 Eigenvector   1:      Triplet-SG   Eigenvalue=-0.0943294  <S**2>=2.000
       4 ->  7         0.68345
 The wavefunction has an RHF -> UHF instability.
 Leave Link  914 at Sun Apr 18 03:16:33 2021, MaxMem=   104857600 cpu:            3794.4 elap:             100.2
 (Enter /s/ls4/users/knvvv/bin/g16sse/l508.exe)
 Keep R1 and R2 ints in memory in symmetry-blocked form, NReq=75744336.
 FoFCou: FMM=F IPFlag=           0 FMFlag=           0 FMFlg1=           0
         NFxFlg=           0 DoJE=F BraDBF=F KetDBF=F FulRan=T
         wScrn=  0.000000 ICntrl=       600 IOpCl=  0 I1Cent=           0 NGrid=           0
         NMat0=    1 NMatS0=   6555 NMatT0=    0 NMatD0=    1 NMtDS0=    0 NMtDT0=    0
 Petite list used in FoFCou.
 CoulSu:  requested number of processors reduced to:  18 ShMem   1 Linda.
 Tight linear equation convergence will be used.
 UM062X wavefunction.
 Quadratic Convergence SCF Method.
 Line search only if initial step raises energy.
 Perform preliminary linear searches along instability eigenvector.
     ILin= 1 X=0.000D+00 Y=-7.938032160968D+01 DE= 0.00D+00
     ILin= 2 X=1.000D-01 Y=-7.938122686100D+01 DE=-9.05D-04
     ILin= 3 X=1.414D-01 Y=-7.938206537041D+01 DE=-1.74D-03
     ILin= 4 X=2.000D-01 Y=-7.938357712870D+01 DE=-3.26D-03
     ILin= 5 X=2.828D-01 Y=-7.938600874968D+01 DE=-5.69D-03
     ILin= 6 X=4.000D-01 Y=-7.938836068873D+01 DE=-8.04D-03
     ILin= 7 X=5.657D-01 Y=-7.938718601768D+01 DE=-6.86D-03
     An  expanding polynomial of degree  7 produced  0.4286
 Iteration F X= 4.286D-01 EE=-7.938847004695754D+01
     ILin= 1 X=0.000D+00 Y=-7.938032160968D+01 DE= 0.00D+00
     ILin= 2 X=1.000D-01 Y=-7.938122686100D+01 DE=-9.05D-04
     ILin= 3 X=1.414D-01 Y=-7.938206537041D+01 DE=-1.74D-03
 The two search directions are symmetric.
 Iteration B X= 4.286D-01 EE=-7.938847004695754D+01
 Take forward step, X= 4.286D-01 Step= 4.286D-01
 Iteration   1 EE= -79.3884858996852                                    Grad=7.757D-02 Max rot=    1.5478 deg.
 Gradient too large for Newton-Raphson -- use scaled steepest descent instead.
 Alpha Gap=     0.159 HL deriv= 1.77D-15
  Beta Gap=     0.175 HL deriv= 2.53D-16
     ILin= 1 X=0.000D+00 Y=-7.938848589969D+01 DE= 0.00D+00 F= -8.78D-03
     ILin= 2 X=3.000D-01 Y=-7.939041015658D+01 DE=-1.92D-03 F= -4.01D-03
     ILin= 3 X=6.000D-01 Y=-7.939087557365D+01 DE=-2.39D-03 F=  9.07D-04
     Accept linear search using points  2 and  3.
     An  expanding polynomial of degree  3 produced  0.4445
 Iteration   2 EE= -79.3908185144615     Delta-E=       -0.002332614776 Grad=3.945D-02 Max rot=    0.8760 deg.
 Gradient too large for Newton-Raphson -- use scaled steepest descent instead.
 Alpha Gap=     0.178 HL deriv= 2.73D-15
  Beta Gap=     0.174 HL deriv= 1.06D-16
     ILin= 1 X=0.000D+00 Y=-7.939081851446D+01 DE= 0.00D+00 F= -3.37D-03
     ILin= 2 X=4.000D-01 Y=-7.939177094301D+01 DE=-9.52D-04 F= -1.39D-03
     ILin= 3 X=6.000D-01 Y=-7.939194996079D+01 DE=-1.13D-03 F= -4.01D-04
     ILin= 4 X=1.000D+00 Y=-7.939171681903D+01 DE=-8.98D-04 F=  1.56D-03
     An  expanding polynomial of degree  4 produced  0.6814
 Iteration   3 EE= -79.3919662190467     Delta-E=       -0.001147704585 Grad=3.547D-02 Max rot=    0.6007 deg.
 Gradient too large for Newton-Raphson -- use scaled steepest descent instead.
 Alpha Gap=     0.219 HL deriv= 5.03D-15
  Beta Gap=     0.178 HL deriv= 2.13D-15
     ILin= 1 X=0.000D+00 Y=-7.939196621905D+01 DE= 0.00D+00 F= -3.69D-03
     ILin= 2 X=6.000D-01 Y=-7.939267906784D+01 DE=-7.13D-04 F=  1.29D-03
     Accept linear search using points  1 and  2.
     An  expanding polynomial of degree  2 produced  0.3621
 Iteration   4 EE= -79.3927539191513     Delta-E=       -0.000787700105 Grad=1.833D-02 Max rot=    0.6305 deg.
 Gradient too large for Newton-Raphson -- use scaled steepest descent instead.
 Alpha Gap=     0.199 HL deriv= 3.09D-15
  Beta Gap=     0.178 HL deriv= 1.95D-15
     ILin= 1 X=0.000D+00 Y=-7.939275391915D+01 DE= 0.00D+00 F= -1.43D-03
     ILin= 2 X=5.000D-01 Y=-7.939336584781D+01 DE=-6.12D-04 F= -1.02D-03
     ILin= 3 X=9.000D-01 Y=-7.939371135128D+01 DE=-9.57D-04 F= -7.06D-04
     ILin= 4 X=1.600D+00 Y=-7.939401781678D+01 DE=-1.26D-03 F= -1.74D-04
     Reject lnstep minimum 2.078D+00 FVal=-7.939410660084D+01 Lims=  9.00D-01  1.60D+00
     ILin= 5 X=2.900D+00 Y=-7.939364046697D+01 DE=-8.87D-04 F=  7.37D-04
     An  expanding polynomial of degree  5 produced  1.8365
 Iteration   5 EE= -79.3940383320199     Delta-E=       -0.001284412869 Grad=4.371D-02 Max rot=    0.6078 deg.
 Gradient too large for Newton-Raphson -- use scaled steepest descent instead.
 Alpha Gap=     0.219 HL deriv= 6.90D-16
  Beta Gap=     0.184 HL deriv= 2.22D-15
     ILin= 1 X=0.000D+00 Y=-7.939403833202D+01 DE= 0.00D+00 F= -5.54D-03
     ILin= 2 X=8.000D-01 Y=-7.939322598345D+01 DE= 8.12D-04 F=  7.49D-03
     Reject lnstep minimum 3.549D-01 FVal=-7.939528035189D+01 Lims=  0.00D+00  8.00D-01
     ILin= 3 X=4.000D-01 Y=-7.939493480912D+01 DE=-8.96D-04 F=  1.03D-03
     A contracting polynomial of degree  3 produced  0.3376
 Iteration   6 EE= -79.3949676369794     Delta-E=       -0.000929304959 Grad=1.312D-02 Max rot=    0.4519 deg.
 Gradient too large for Newton-Raphson -- use scaled steepest descent instead.
 Alpha Gap=     0.193 HL deriv= 5.05D-16
  Beta Gap=     0.185 HL deriv= 1.62D-15
     ILin= 1 X=0.000D+00 Y=-7.939496763698D+01 DE= 0.00D+00 F= -7.18D-04
     ILin= 2 X=8.000D-01 Y=-7.939541629323D+01 DE=-4.49D-04 F= -4.06D-04
     ILin= 3 X=1.500D+00 Y=-7.939560921980D+01 DE=-6.42D-04 F= -1.47D-04
     ILin= 4 X=2.900D+00 Y=-7.939547150661D+01 DE=-5.04D-04 F=  3.37D-04
     An  expanding polynomial of degree  4 produced  1.9116
 Iteration   7 EE= -79.3956394670051     Delta-E=       -0.000671830026 Grad=3.172D-02 Max rot=    0.4389 deg.
 Gradient too large for Newton-Raphson -- use scaled steepest descent instead.
 Alpha Gap=     0.218 HL deriv= 3.43D-15
  Beta Gap=     0.191 HL deriv= 3.69D-15
     ILin= 1 X=0.000D+00 Y=-7.939563946701D+01 DE= 0.00D+00 F= -2.80D-03
     ILin= 2 X=8.000D-01 Y=-7.939532030122D+01 DE= 3.19D-04 F=  3.56D-03
     Reject lnstep minimum 3.637D-01 FVal=-7.939628128727D+01 Lims=  0.00D+00  8.00D-01
     ILin= 3 X=4.000D-01 Y=-7.939611608342D+01 DE=-4.77D-04 F=  4.07D-04
     A contracting polynomial of degree  3 produced  0.3498
 Iteration   8 EE= -79.3961265022267     Delta-E=       -0.000487035222 Grad=9.172D-03 Max rot=    0.3324 deg.
 QCNR:  CnvC1=3.60D-09 CnvC2=3.60D-08
 LinEq1:  Iter=  0 NonCon=     1 RMS=6.96D-04 Max=2.38D-02 NDo=     1
 AX will form     1 AO Fock derivatives at one time.
 LinEq1:  Iter=  1 NonCon=     1 RMS=5.54D-04 Max=7.16D-03 NDo=     1
 LinEq1:  Iter=  2 NonCon=     1 RMS=1.56D-04 Max=3.95D-03 NDo=     1
 LinEq1:  Iter=  3 NonCon=     1 RMS=1.49D-04 Max=2.02D-03 NDo=     1
 LinEq1:  Iter=  4 NonCon=     1 RMS=6.00D-05 Max=7.55D-04 NDo=     1
 LinEq1:  Iter=  5 NonCon=     1 RMS=2.18D-05 Max=1.94D-04 NDo=     1
 LinEq1:  Iter=  6 NonCon=     1 RMS=4.70D-06 Max=5.42D-05 NDo=     1
 LinEq1:  Iter=  7 NonCon=     1 RMS=8.51D-07 Max=1.43D-05 NDo=     1
 LinEq1:  Iter=  8 NonCon=     1 RMS=1.47D-07 Max=2.25D-06 NDo=     1
 LinEq1:  Iter=  9 NonCon=     1 RMS=3.13D-08 Max=5.96D-07 NDo=     1
 LinEq1:  Iter= 10 NonCon=     1 RMS=8.15D-09 Max=1.64D-07 NDo=     1
 LinEq1:  Iter= 11 NonCon=     0 RMS=2.15D-09 Max=2.41D-08 NDo=     1
 Linear equations converged to 3.600D-09 3.600D-08 after    11 iterations.
 Angle between quadratic step and gradient=  42.32 degrees.
     ILin= 1 X=0.000D+00 Y=-7.939612650223D+01 DE= 0.00D+00 F= -2.39D-03
     ILin= 2 X=1.000D+00 Y=-7.939692870226D+01 DE=-8.02D-04 F=  1.37D-03
     Accept linear search using points  1 and  2.
     An  expanding polynomial of degree  2 produced  0.7310
 Iteration   9 EE= -79.3971061077760     Delta-E=       -0.000979605549 Grad=8.021D-03 Max rot=    0.0990 deg.
 QCNR:  CnvC1=3.60D-09 CnvC2=3.60D-08
 LinEq1:  Iter=  0 NonCon=     1 RMS=2.57D-04 Max=4.03D-03 NDo=     1
 LinEq1:  Iter=  1 NonCon=     1 RMS=1.63D-04 Max=3.05D-03 NDo=     1
 LinEq1:  Iter=  2 NonCon=     1 RMS=1.61D-04 Max=4.08D-03 NDo=     1
 LinEq1:  Iter=  3 NonCon=     1 RMS=1.50D-04 Max=3.15D-03 NDo=     1
 LinEq1:  Iter=  4 NonCon=     1 RMS=4.51D-05 Max=8.07D-04 NDo=     1
 LinEq1:  Iter=  5 NonCon=     1 RMS=1.53D-05 Max=1.51D-04 NDo=     1
 LinEq1:  Iter=  6 NonCon=     1 RMS=3.88D-06 Max=3.68D-05 NDo=     1
 LinEq1:  Iter=  7 NonCon=     1 RMS=1.71D-06 Max=2.56D-05 NDo=     1
 LinEq1:  Iter=  8 NonCon=     1 RMS=5.46D-07 Max=7.68D-06 NDo=     1
 LinEq1:  Iter=  9 NonCon=     1 RMS=9.11D-08 Max=8.50D-07 NDo=     1
 LinEq1:  Iter= 10 NonCon=     1 RMS=2.11D-08 Max=2.01D-07 NDo=     1
 LinEq1:  Iter= 11 NonCon=     1 RMS=6.87D-09 Max=7.88D-08 NDo=     1
 LinEq1:  Iter= 12 NonCon=     0 RMS=1.34D-09 Max=1.40D-08 NDo=     1
 Linear equations converged to 3.600D-09 3.600D-08 after    12 iterations.
 Angle between quadratic step and gradient=  61.88 degrees.
     ILin= 1 X=0.000D+00 Y=-7.939710610778D+01 DE= 0.00D+00 F= -5.04D-05
     ILin= 2 X=1.000D+00 Y=-7.939713135596D+01 DE=-2.52D-05 F= -7.98D-08
     Reject lnstep minimum 1.002D+00 FVal=-7.939713135602D+01 Lims=  0.00D+00  1.00D+00
     ILin= 3 X=2.000D+00 Y=-7.939710632143D+01 DE=-2.14D-07 F=  5.01D-05
     An  expanding polynomial of degree  3 produced  1.0021
     Minimum is close to point  2 DX=  2.12D-03 DF= -1.13D-10 DXR=  2.12D-03 DFR=  4.49D-06 which will be used.
 Iteration  10 EE= -79.3971313559565     Delta-E=       -0.000025248180 Grad=2.534D-05 Max rot=    0.0004 deg.
 QCNR:  CnvC1=2.53D-10 CnvC2=2.53D-09
 LinEq1:  Iter=  0 NonCon=     1 RMS=1.12D-06 Max=2.78D-05 NDo=     1
 LinEq1:  Iter=  1 NonCon=     1 RMS=1.01D-06 Max=2.00D-05 NDo=     1
 LinEq1:  Iter=  2 NonCon=     1 RMS=5.81D-07 Max=5.88D-06 NDo=     1
 LinEq1:  Iter=  3 NonCon=     1 RMS=7.17D-07 Max=1.02D-05 NDo=     1
 LinEq1:  Iter=  4 NonCon=     1 RMS=3.09D-07 Max=3.99D-06 NDo=     1
 LinEq1:  Iter=  5 NonCon=     1 RMS=1.18D-07 Max=1.63D-06 NDo=     1
 LinEq1:  Iter=  6 NonCon=     1 RMS=3.51D-08 Max=3.86D-07 NDo=     1
 LinEq1:  Iter=  7 NonCon=     1 RMS=9.82D-09 Max=1.36D-07 NDo=     1
 LinEq1:  Iter=  8 NonCon=     1 RMS=2.63D-09 Max=3.21D-08 NDo=     1
 LinEq1:  Iter=  9 NonCon=     1 RMS=6.99D-10 Max=7.76D-09 NDo=     1
 LinEq1:  Iter= 10 NonCon=     0 RMS=1.57D-10 Max=2.32D-09 NDo=     1
 Linear equations converged to 2.534D-10 2.534D-09 after    10 iterations.
 Angle between quadratic step and gradient=  66.47 degrees.
     ILin= 1 X=0.000D+00 Y=-7.939713135596D+01 DE= 0.00D+00 F= -2.37D-09
     ILin= 2 X=1.000D+00 Y=-7.939713135714D+01 DE=-1.19D-09
 Iteration  11 EE= -79.3971313571422     Delta-E=       -0.000000001186 Grad=1.848D-08 Max rot=    0.0000 deg.
 Rotation gradient small -- convergence achieved.
 SCF Done:  E(UM062X) =  -79.3971313571     a.u. after   11 cycles
            Convg  =    0.1848D-07                    71 Fock formations.
              S**2 =  0.7559                  -V/T =  2.0045
 <Sx>= 0.0000 <Sy>= 0.0000 <Sz>= 0.0000 <S**2>= 0.7559 S= 0.5029
 <L.S>= 0.000000000000E+00
 Annihilation of the first spin contaminant:
 S**2 before annihilation     0.7559,   after     0.2498
 Leave Link  508 at Sun Apr 18 03:17:05 2021, MaxMem=   104857600 cpu:            1415.9 elap:              31.1
 (Enter /s/ls4/users/knvvv/bin/g16sse/l801.exe)
 DoSCS=F DFT=T ScalE2(SS,OS)=  1.000000  1.000000
 Range of M.O.s used for correlation:     1   114
 NBasis=   114 NAE=     6 NBE=     6 NFC=     0 NFV=     0
 NROrb=    114 NOA=     6 NOB=     6 NVA=   108 NVB=   108

 **** Warning!!: The largest alpha MO coefficient is  0.17755876D+02


 **** Warning!!: The largest beta MO coefficient is  0.18789571D+02

 Leave Link  801 at Sun Apr 18 03:17:05 2021, MaxMem=   104857600 cpu:               3.5 elap:               0.1
 (Enter /s/ls4/users/knvvv/bin/g16sse/l914.exe)
 UHF ground state
 Doing stability rather than CIS.
 Two-electron integrals replicated using symmetry.
 MDV=   104857600 DFT=T DoStab=T Mixed=T DoRPA=F DoScal=F NonHer=F
 Making orbital integer symmetry assigments:
 Orbital symmetries:
 Alpha Orbitals:
       Occupied  (SG) (SG) (SG) (SG) (PI) (PI)
       Virtual   (SG) (PI) (PI) (SG) (SG) (PI) (PI) (SG) (SG) (DLTA)
                 (DLTA) (PI) (PI) (PI) (PI) (SG) (PI) (PI) (SG)
                 (SG) (DLTA) (DLTA) (SG) (PI) (PI) (SG) (PHI) (PHI)
                 (PI) (PI) (DLTA) (DLTA) (SG) (DLTA) (DLTA) (PI)
                 (PI) (SG) (PI) (PI) (SG) (PI) (PI) (SG) (PHI)
                 (PHI) (SG) (DLTA) (DLTA) (PI) (PI) (DLTA) (DLTA)
                 (PI) (PI) (SG) (?A) (?A) (PHI) (PHI) (SG) (DLTA)
                 (DLTA) (PI) (PI) (DLTA) (DLTA) (PHI) (PHI) (SG)
                 (PI) (PI) (PI) (PI) (SG) (DLTA) (DLTA) (SG) (SG)
                 (PI) (PI) (SG) (?A) (?A) (PHI) (PHI) (DLTA) (DLTA)
                 (PI) (PI) (SG) (PHI) (PHI) (DLTA) (DLTA) (PI)
                 (PI) (SG) (DLTA) (DLTA) (SG) (PI) (PI) (SG) (SG)
                 (SG) (SG) (SG)
 Beta  Orbitals:
       Occupied  (SG) (SG) (SG) (SG) (PI) (PI)
       Virtual   (SG) (PI) (PI) (SG) (SG) (PI) (PI) (SG) (PI) (PI)
                 (DLTA) (DLTA) (SG) (PI) (PI) (SG) (PI) (PI) (SG)
                 (SG) (DLTA) (DLTA) (SG) (PI) (PI) (PHI) (PHI)
                 (DLTA) (DLTA) (PI) (PI) (SG) (SG) (DLTA) (DLTA)
                 (PI) (PI) (SG) (PI) (PI) (SG) (PI) (PI) (SG) (PHI)
                 (PHI) (DLTA) (DLTA) (SG) (PI) (PI) (DLTA) (DLTA)
                 (?A) (?A) (SG) (PI) (PI) (PHI) (PHI) (DLTA) (DLTA)
                 (PI) (PI) (DLTA) (DLTA) (PHI) (PHI) (SG) (SG)
                 (PI) (PI) (PI) (PI) (DLTA) (DLTA) (SG) (SG) (SG)
                 (PI) (PI) (SG) (?A) (?A) (PHI) (PHI) (DLTA) (DLTA)
                 (PI) (PI) (SG) (PHI) (PHI) (DLTA) (DLTA) (PI)
                 (PI) (DLTA) (DLTA) (SG) (SG) (PI) (PI) (SG) (SG)
                 (SG) (SG) (SG)
    12 initial guesses have been made.
 Convergence on wavefunction:    0.001000000000000
 Davidson Disk Diagonalization:  ConvIn= 1.00D-03 SkipCon=T Conv= 1.00D-03.
 Max sub-space:  2000 roots to seek:    12 dimension of matrix:         1296
 Iteration     1 Dimension    12 NMult     0 NNew     12
 Estimated number of processors is:   20
 CISAX will form     1 AO SS matrices at one time.
 Spin AA IR=    1 I=   7 J=   6 Mu=   66 Nu=    7 IOp=2 MuP=   -66 NuP=     7
 Err= 2.39D-01 FactIJ= 1.0 Fact=-1.0
 A= 1.1957197408D-01 AP=-1.1957197408D-01 B= 0.0000000000D+00 BP=-0.0000000000D+00
 NMat=     1 NSing=     1 JSym2X= 2.
 FoFJK:  IHMeth= 1 ICntrl=       0 DoSepK=F KAlg= 0 I1Cent=           0 FoldK=F
 IRaf= 990000000 NMat=       1 IRICut=       1 DoRegI=T DoRafI=F ISym2E= 2 IDoP0=0 IntGTp=1.
 FoFCou: FMM=F IPFlag=           0 FMFlag=      100000 FMFlg1=           0
         NFxFlg=           0 DoJE=F BraDBF=F KetDBF=F FulRan=T
         wScrn=  0.000000 ICntrl=         0 IOpCl=  1 I1Cent=           0 NGrid=           0
         NMat0=    1 NMatS0=      1 NMatT0=    0 NMatD0=    1 NMtDS0=    0 NMtDT0=    0
 Integrals replicated using symmetry in FoFCou.
 CoulSu:  requested number of processors reduced to:  20 ShMem   1 Linda.
 NMat=     1 NSing=     1 JSym2X= 2.
 CoulSu:  requested number of processors reduced to:  20 ShMem   1 Linda.
 NMat=     1 NSing=     1 JSym2X= 2.
 CoulSu:  requested number of processors reduced to:  20 ShMem   1 Linda.
 NMat=     1 NSing=     1 JSym2X= 2.
 CoulSu:  requested number of processors reduced to:  20 ShMem   1 Linda.
 NMat=     1 NSing=     1 JSym2X= 2.
 CoulSu:  requested number of processors reduced to:  20 ShMem   1 Linda.
 NMat=     1 NSing=     1 JSym2X= 2.
 CoulSu:  requested number of processors reduced to:  20 ShMem   1 Linda.
 NMat=     1 NSing=     1 JSym2X= 2.
 CoulSu:  requested number of processors reduced to:  20 ShMem   1 Linda.
 NMat=     1 NSing=     1 JSym2X= 2.
 CoulSu:  requested number of processors reduced to:  20 ShMem   1 Linda.
 NMat=     1 NSing=     1 JSym2X= 2.
 CoulSu:  requested number of processors reduced to:  20 ShMem   1 Linda.
 NMat=     1 NSing=     1 JSym2X= 2.
 CoulSu:  requested number of processors reduced to:  20 ShMem   1 Linda.
 NMat=     1 NSing=     1 JSym2X= 2.
 CoulSu:  requested number of processors reduced to:  20 ShMem   1 Linda.
 NMat=     1 NSing=     1 JSym2X= 2.
 CoulSu:  requested number of processors reduced to:  20 ShMem   1 Linda.
 New state      1 was old state      3
 Excitation Energies [eV] at current iteration:
 Root      1 :    -0.056343601993473
 Root      2 :    -0.056343601993277
 Root      3 :     2.708931291917664
 Root      4 :     4.460262802963759
 Root      5 :     4.460262802965161
 Root      6 :     5.990238200332437
 Root      7 :     5.996949228330588
 Root      8 :     7.126672268864557
 Root      9 :     7.221688886508861
 Root     10 :     7.991634499267529
 Root     11 :    12.973182518078850
 Root     12 :    19.589306405724650
 Iteration     2 Dimension    24 NMult    12 NNew     12
 Estimated number of processors is:   20
 CISAX will form     1 AO SS matrices at one time.
 Spin BB IR=    1 I=  11 J=   6 Mu=   66 Nu=   64 IOp=2 MuP=   -66 NuP=    64
 Err= 1.03D+00 FactIJ= 1.0 Fact=-1.0
 A= 9.0980222806D-02 AP=-9.0980222806D-02 B= 5.1483617283D-01 BP=-5.1483617283D-01
 NMat=     1 NSing=     1 JSym2X= 2.
 CoulSu:  requested number of processors reduced to:  20 ShMem   1 Linda.
 NMat=     1 NSing=     1 JSym2X= 2.
 CoulSu:  requested number of processors reduced to:  20 ShMem   1 Linda.
 NMat=     1 NSing=     1 JSym2X= 2.
 CoulSu:  requested number of processors reduced to:  20 ShMem   1 Linda.
 NMat=     1 NSing=     1 JSym2X= 2.
 CoulSu:  requested number of processors reduced to:  20 ShMem   1 Linda.
 NMat=     1 NSing=     1 JSym2X= 2.
 CoulSu:  requested number of processors reduced to:  20 ShMem   1 Linda.
 NMat=     1 NSing=     1 JSym2X= 2.
 CoulSu:  requested number of processors reduced to:  20 ShMem   1 Linda.
 NMat=     1 NSing=     1 JSym2X= 2.
 CoulSu:  requested number of processors reduced to:  20 ShMem   1 Linda.
 NMat=     1 NSing=     1 JSym2X= 2.
 CoulSu:  requested number of processors reduced to:  20 ShMem   1 Linda.
 NMat=     1 NSing=     1 JSym2X= 2.
 CoulSu:  requested number of processors reduced to:  20 ShMem   1 Linda.
 NMat=     1 NSing=     1 JSym2X= 2.
 CoulSu:  requested number of processors reduced to:  20 ShMem   1 Linda.
 NMat=     1 NSing=     1 JSym2X= 2.
 CoulSu:  requested number of processors reduced to:  20 ShMem   1 Linda.
 NMat=     1 NSing=     1 JSym2X= 2.
 CoulSu:  requested number of processors reduced to:  20 ShMem   1 Linda.
 Root      1 not converged, maximum delta is    0.135108714597636
 Excitation Energies [eV] at current iteration:
 Root      1 :    -0.492712465909478   Change is   -0.436368863916005
 Root      2 :    -0.492712465909228   Change is   -0.436368863915951
 Root      3 :     1.959882666711160   Change is   -0.749048625206505
 Root      4 :     2.577695830637139   Change is   -1.882566972326620
 Root      5 :     2.577695830638510   Change is   -1.882566972326650
 Root      6 :     4.657459887501601   Change is   -2.564228999007261
 Root      7 :     5.149809595720400   Change is   -0.847139632610188
 Root      8 :     5.227466765493954   Change is   -0.762771434838483
 Root      9 :     6.843251238503584   Change is   -0.283421030360973
 Root     10 :     7.386991472183210   Change is   -0.604643027084319
 Root     11 :     8.836523318738884   Change is   -4.136659199339962
 Root     12 :    10.499617047173780   Change is   -9.089689358550864
 Iteration     3 Dimension    27 NMult    24 NNew      3
 Estimated number of processors is:   20
 CISAX will form     1 AO SS matrices at one time.
 Spin BB IR=    1 I=   9 J=   4 Mu=    6 Nu=   75 IOp=2 MuP=     6 NuP=   -75
 Err= 4.64D-01 FactIJ= 1.0 Fact=-1.0
 A=-1.4991958317D-02 AP= 1.4991958317D-02 B= 2.3185501911D-01 BP=-2.3185501911D-01
 NMat=     1 NSing=     1 JSym2X= 2.
 CoulSu:  requested number of processors reduced to:  20 ShMem   1 Linda.
 NMat=     1 NSing=     1 JSym2X= 2.
 CoulSu:  requested number of processors reduced to:  20 ShMem   1 Linda.
 NMat=     1 NSing=     1 JSym2X= 2.
 CoulSu:  requested number of processors reduced to:  20 ShMem   1 Linda.
 Root      1 not converged, maximum delta is    0.209533787896129
 Excitation Energies [eV] at current iteration:
 Root      1 :    -0.518366149084417   Change is   -0.025653683174939
 Root      2 :    -0.518366149084215   Change is   -0.025653683174987
 Root      3 :     1.839081873810819   Change is   -0.120800792900341
 Iteration     4 Dimension    30 NMult    27 NNew      3
 Estimated number of processors is:   20
 CISAX will form     1 AO SS matrices at one time.
 Spin BB IR=    1 I=  14 J=   5 Mu=   66 Nu=   64 IOp=2 MuP=   -66 NuP=    64
 Err= 1.03D+00 FactIJ= 1.0 Fact=-1.0
 A=-3.6320789897D-01 AP= 3.6320789897D-01 B=-5.1495853471D-01 BP= 5.1495853471D-01
 NMat=     1 NSing=     1 JSym2X= 2.
 CoulSu:  requested number of processors reduced to:  20 ShMem   1 Linda.
 NMat=     1 NSing=     1 JSym2X= 2.
 CoulSu:  requested number of processors reduced to:  20 ShMem   1 Linda.
 NMat=     1 NSing=     1 JSym2X= 2.
 CoulSu:  requested number of processors reduced to:  20 ShMem   1 Linda.
 Root      1 not converged, maximum delta is    0.173741939623127
 Excitation Energies [eV] at current iteration:
 Root      1 :    -0.520243764101519   Change is   -0.001877615017101
 Root      2 :    -0.520243764101277   Change is   -0.001877615017062
 Root      3 :     1.825862636514270   Change is   -0.013219237296549
 Iteration     5 Dimension    33 NMult    30 NNew      3
 Estimated number of processors is:   20
 CISAX will form     1 AO SS matrices at one time.
 Spin BB IR=    1 I=   9 J=   4 Mu=    6 Nu=   12 IOp=2 MuP=     6 NuP=   -12
 Err= 8.08D-01 FactIJ= 1.0 Fact=-1.0
 A=-1.1711017446D-02 AP= 1.1711017446D-02 B=-4.0389618846D-01 BP= 4.0389618846D-01
 NMat=     1 NSing=     1 JSym2X= 2.
 CoulSu:  requested number of processors reduced to:  20 ShMem   1 Linda.
 NMat=     1 NSing=     1 JSym2X= 2.
 CoulSu:  requested number of processors reduced to:  20 ShMem   1 Linda.
 NMat=     1 NSing=     1 JSym2X= 2.
 CoulSu:  requested number of processors reduced to:  20 ShMem   1 Linda.
 Root      1 not converged, maximum delta is    0.185126900952095
 Excitation Energies [eV] at current iteration:
 Root      1 :    -0.520355749702185   Change is   -0.000111985600667
 Root      2 :    -0.520355749701998   Change is   -0.000111985600721
 Root      3 :     1.824870495368755   Change is   -0.000992141145515
 Iteration     6 Dimension    36 NMult    33 NNew      3
 Estimated number of processors is:   20
 CISAX will form     1 AO SS matrices at one time.
 Spin BB IR=    1 I=  16 J=   4 Mu=   66 Nu=    6 IOp=2 MuP=   -66 NuP=     6
 Err= 1.99D+00 FactIJ= 1.0 Fact=-1.0
 A=-9.9363479981D-01 AP= 9.9363479981D-01 B=-6.7051088558D-01 BP= 6.7051088558D-01
 NMat=     1 NSing=     1 JSym2X= 2.
 CoulSu:  requested number of processors reduced to:  20 ShMem   1 Linda.
 NMat=     1 NSing=     1 JSym2X= 2.
 CoulSu:  requested number of processors reduced to:  20 ShMem   1 Linda.
 NMat=     1 NSing=     1 JSym2X= 2.
 CoulSu:  requested number of processors reduced to:  20 ShMem   1 Linda.
 Root      1 not converged, maximum delta is    0.073694020580324
 Excitation Energies [eV] at current iteration:
 Root      1 :    -0.520357567318514   Change is   -0.000001817616329
 Root      2 :    -0.520357567318297   Change is   -0.000001817616299
 Root      3 :     1.824751142797129   Change is   -0.000119352571627
 Iteration     7 Dimension    39 NMult    36 NNew      3
 Estimated number of processors is:   20
 CISAX will form     1 AO SS matrices at one time.
 Spin AA IR=    1 I=  22 J=   6 Mu=   66 Nu=   64 IOp=2 MuP=   -66 NuP=    64
 Err= 1.19D+00 FactIJ= 1.0 Fact=-1.0
 A=-5.9718966888D-01 AP= 5.9718966888D-01 B= 2.6410386340D-01 BP=-2.6410386340D-01
 NMat=     1 NSing=     1 JSym2X= 2.
 CoulSu:  requested number of processors reduced to:  20 ShMem   1 Linda.
 NMat=     1 NSing=     1 JSym2X= 2.
 CoulSu:  requested number of processors reduced to:  20 ShMem   1 Linda.
 NMat=     1 NSing=     1 JSym2X= 2.
 CoulSu:  requested number of processors reduced to:  20 ShMem   1 Linda.
 Root      1 not converged, maximum delta is    0.228991210561291
 Excitation Energies [eV] at current iteration:
 Root      1 :    -0.520357627086883   Change is   -0.000000059768369
 Root      2 :    -0.520357627086629   Change is   -0.000000059768332
 Root      3 :     1.824741594011611   Change is   -0.000009548785518
 Iteration     8 Dimension    42 NMult    39 NNew      3
 Estimated number of processors is:   20
 CISAX will form     1 AO SS matrices at one time.
 Spin AA IR=    1 I=  10 J=   6 Mu=   66 Nu=   64 IOp=2 MuP=   -66 NuP=    64
 Err= 8.83D-01 FactIJ= 1.0 Fact=-1.0
 A=-1.2785177741D-01 AP= 1.2785177741D-01 B=-4.4138629838D-01 BP= 4.4138629838D-01
 NMat=     1 NSing=     1 JSym2X= 2.
 CoulSu:  requested number of processors reduced to:  20 ShMem   1 Linda.
 NMat=     1 NSing=     1 JSym2X= 2.
 CoulSu:  requested number of processors reduced to:  20 ShMem   1 Linda.
 NMat=     1 NSing=     1 JSym2X= 2.
 CoulSu:  requested number of processors reduced to:  20 ShMem   1 Linda.
 Root      1 not converged, maximum delta is    0.092442750844333
 Excitation Energies [eV] at current iteration:
 Root      1 :    -0.520357631981050   Change is   -0.000000004894168
 Root      2 :    -0.520357631980791   Change is   -0.000000004894162
 Root      3 :     1.824740871313139   Change is   -0.000000722698471
 Iteration     9 Dimension    43 NMult    42 NNew      1
 Estimated number of processors is:   20
 CISAX will form     1 AO SS matrices at one time.
 Spin AA IR=    1 I=   7 J=   3 Mu=   66 Nu=   71 IOp=3 MuP=    66 NuP=   -71
 Err= 3.36D-01 FactIJ= 1.0 Fact=-1.0
 A=-1.6812838574D-01 AP= 1.6812838574D-01 B=-2.2696134826D-02 BP= 2.2696134826D-02
 NMat=     1 NSing=     1 JSym2X= 2.
 CoulSu:  requested number of processors reduced to:  20 ShMem   1 Linda.
 Root      1 not converged, maximum delta is    0.070855076430999
 Excitation Energies [eV] at current iteration:
 Root      1 :    -0.520357631981062   Change is   -0.000000000000012
 Root      2 :    -0.520357631980806   Change is   -0.000000000000015
 Root      3 :     1.824740826257514   Change is   -0.000000045055625
 Iteration    10 Dimension    44 NMult    43 NNew      1
 Estimated number of processors is:   20
 CISAX will form     1 AO SS matrices at one time.
 Spin BB IR=    1 I=  22 J=   4 Mu=   65 Nu=   72 IOp=3 MuP=   -65 NuP=    72
 Err= 1.36D-01 FactIJ= 1.0 Fact=-1.0
 A= 6.8200173819D-02 AP=-6.8200173819D-02 B=-1.6462994860D-03 BP= 1.6462994860D-03
 NMat=     1 NSing=     1 JSym2X= 2.
 CoulSu:  requested number of processors reduced to:  20 ShMem   1 Linda.
 Root      1 not converged, maximum delta is    0.026331273479542
 Excitation Energies [eV] at current iteration:
 Root      1 :    -0.520357631981081   Change is   -0.000000000000018
 Root      2 :    -0.520357631980785   Change is    0.000000000000021
 Root      3 :     1.824740823764720   Change is   -0.000000002492794
 Convergence achieved on expansion vectors.
 ***********************************************************************
 Stability analysis using <AA,BB:AA,BB> singles matrix:
 ***********************************************************************
 1PDM for each excited state written to RWF  633
 Ground to excited state transition densities written to RWF  633

 Eigenvectors of the stability matrix:
 
 Excited state symmetry could not be determined.
 Eigenvector   1:  2.363-?Sym  Eigenvalue=-0.0191228  <S**2>=1.145
      5B ->  7B        0.64645
      6B ->  7B        0.73631
 
 Excited state symmetry could not be determined.
 Eigenvector   2:  2.363-?Sym  Eigenvalue=-0.0191228  <S**2>=1.145
      5B ->  7B        0.73631
      6B ->  7B       -0.64645
 
 Eigenvector   3:  1.720-SG   Eigenvalue= 0.0670580  <S**2>=0.490
      4A ->  7A       -0.12034
      5A ->  8A        0.11898
      6A ->  9A        0.11898
      4B ->  7B        0.93640
 The wavefunction has an internal instability.
 Leave Link  914 at Sun Apr 18 03:18:45 2021, MaxMem=   104857600 cpu:            3982.9 elap:             100.3
 (Enter /s/ls4/users/knvvv/bin/g16sse/l508.exe)
 Keep R1 and R2 ints in memory in symmetry-blocked form, NReq=75744336.
 FoFCou: FMM=F IPFlag=           0 FMFlag=           0 FMFlg1=           0
         NFxFlg=           0 DoJE=F BraDBF=F KetDBF=F FulRan=T
         wScrn=  0.000000 ICntrl=       600 IOpCl=  0 I1Cent=           0 NGrid=           0
         NMat0=    1 NMatS0=   6555 NMatT0=    0 NMatD0=    1 NMtDS0=    0 NMtDT0=    0
 Petite list used in FoFCou.
 CoulSu:  requested number of processors reduced to:  18 ShMem   1 Linda.
 Tight linear equation convergence will be used.
 UM062X wavefunction.
 Quadratic Convergence SCF Method.
 Line search only if initial step raises energy.
 Perform preliminary linear searches along instability eigenvector.
     ILin= 1 X=0.000D+00 Y=-7.939713135714D+01 DE= 0.00D+00
     ILin= 2 X=1.000D-01 Y=-7.939731657849D+01 DE=-1.85D-04
     ILin= 3 X=1.414D-01 Y=-7.939749008492D+01 DE=-3.59D-04
     ILin= 4 X=2.000D-01 Y=-7.939780346964D+01 DE=-6.72D-04
     ILin= 5 X=2.828D-01 Y=-7.939830688894D+01 DE=-1.18D-03
     ILin= 6 X=4.000D-01 Y=-7.939890939123D+01 DE=-1.78D-03
     ILin= 7 X=5.657D-01 Y=-7.939908643820D+01 DE=-1.96D-03
     ILin= 8 X=8.000D-01 Y=-7.939763904921D+01 DE=-5.08D-04
     An  expanding polynomial of degree  8 produced  0.5140
 Iteration F X= 5.140D-01 EE=-7.939913285924816D+01
     ILin= 1 X=0.000D+00 Y=-7.939713135714D+01 DE= 0.00D+00
     ILin= 2 X=1.000D-01 Y=-7.939731657848D+01 DE=-1.85D-04
     ILin= 3 X=1.414D-01 Y=-7.939749008492D+01 DE=-3.59D-04
 The two search directions are symmetric.
 Iteration B X= 5.140D-01 EE=-7.939913285924816D+01
 Take forward step, X= 5.140D-01 Step= 5.140D-01
 Iteration   1 EE= -79.3991339892398                                    Grad=5.951D-02 Max rot=    0.7310 deg.
 Gradient too large for Newton-Raphson -- use scaled steepest descent instead.
 Alpha Gap=     0.154 HL deriv= 1.05D-03
  Beta Gap=     0.216 HL deriv= 5.20D-03
     ILin= 1 X=0.000D+00 Y=-7.939913398924D+01 DE= 0.00D+00 F= -3.46D-03
     ILin= 2 X=3.000D-01 Y=-7.939989023471D+01 DE=-7.56D-04 F= -1.58D-03
     ILin= 3 X=6.000D-01 Y=-7.940008047895D+01 DE=-9.46D-04 F=  3.14D-04
     Accept linear search using points  2 and  3.
     An  expanding polynomial of degree  3 produced  0.4440
 Iteration   2 EE= -79.4000524992130     Delta-E=       -0.000918509973 Grad=3.263D-02 Max rot=    0.4213 deg.
 Gradient too large for Newton-Raphson -- use scaled steepest descent instead.
 Alpha Gap=     0.194 HL deriv= 1.18D-03
  Beta Gap=     0.214 HL deriv= 1.16D-02
     ILin= 1 X=0.000D+00 Y=-7.940005249921D+01 DE= 0.00D+00 F= -9.50D-04
     ILin= 2 X=4.000D-01 Y=-7.940034462943D+01 DE=-2.92D-04 F= -5.11D-04
     ILin= 3 X=7.000D-01 Y=-7.940044883019D+01 DE=-3.96D-04 F= -1.84D-04
     ILin= 4 X=1.500D+00 Y=-7.940025143624D+01 DE=-1.99D-04 F=  6.73D-04
     An  expanding polynomial of degree  4 produced  0.8702
 Iteration   3 EE= -79.4004644363214     Delta-E=       -0.000411937108 Grad=1.827D-02 Max rot=    0.3670 deg.
 Gradient too large for Newton-Raphson -- use scaled steepest descent instead.
 Alpha Gap=     0.140 HL deriv= 3.40D-03
  Beta Gap=     0.213 HL deriv= 1.22D-02
     ILin= 1 X=0.000D+00 Y=-7.940046443632D+01 DE= 0.00D+00 F= -9.28D-04
     ILin= 2 X=6.000D-01 Y=-7.940059743123D+01 DE=-1.33D-04 F=  5.00D-04
     Accept linear search using points  1 and  2.
     An  expanding polynomial of degree  2 produced  0.3402
 Iteration   4 EE= -79.4006456526521     Delta-E=       -0.000181216331 Grad=9.605D-03 Max rot=    0.1695 deg.
 QCNR:  CnvC1=3.60D-09 CnvC2=3.60D-08
 LinEq1:  Iter=  0 NonCon=     1 RMS=5.90D-04 Max=1.59D-02 NDo=     1
 AX will form     1 AO Fock derivatives at one time.
 LinEq1:  Iter=  1 NonCon=     1 RMS=4.76D-04 Max=1.30D-02 NDo=     1
 LinEq1:  Iter=  2 NonCon=     1 RMS=2.19D-04 Max=3.40D-03 NDo=     1
 LinEq1:  Iter=  3 NonCon=     1 RMS=1.22D-04 Max=2.07D-03 NDo=     1
 LinEq1:  Iter=  4 NonCon=     1 RMS=9.56D-05 Max=1.23D-03 NDo=     1
 LinEq1:  Iter=  5 NonCon=     1 RMS=5.76D-05 Max=9.35D-04 NDo=     1
 LinEq1:  Iter=  6 NonCon=     1 RMS=2.44D-05 Max=5.08D-04 NDo=     1
 LinEq1:  Iter=  7 NonCon=     1 RMS=7.31D-06 Max=1.05D-04 NDo=     1
 LinEq1:  Iter=  8 NonCon=     1 RMS=3.06D-06 Max=4.33D-05 NDo=     1
 LinEq1:  Iter=  9 NonCon=     1 RMS=7.19D-07 Max=6.29D-06 NDo=     1
 LinEq1:  Iter= 10 NonCon=     1 RMS=1.60D-07 Max=1.41D-06 NDo=     1
 LinEq1:  Iter= 11 NonCon=     1 RMS=4.21D-08 Max=6.38D-07 NDo=     1
 LinEq1:  Iter= 12 NonCon=     1 RMS=1.71D-08 Max=4.16D-07 NDo=     1
 LinEq1:  Iter= 13 NonCon=     1 RMS=7.92D-09 Max=1.47D-07 NDo=     1
 LinEq1:  Iter= 14 NonCon=     1 RMS=3.29D-09 Max=5.12D-08 NDo=     1
 LinEq1:  Iter= 15 NonCon=     0 RMS=1.39D-09 Max=2.52D-08 NDo=     1
 Linear equations converged to 3.600D-09 3.600D-08 after    15 iterations.
 Angle between quadratic step and gradient= 119.17 degrees.
 Incorrect curvature in search direction -- initial direction reversed.
     ILin= 1 X=0.000D+00 Y=-7.940064565265D+01 DE= 0.00D+00 F= -2.62D-02
     ILin= 2 X=3.000D-01 Y=-7.940312028616D+01 DE=-2.47D-03 F=  6.06D-02
     Accept linear search using points  1 and  2.
     An  expanding polynomial of degree  2 produced  0.1920
 Iteration   5 EE= -79.4054869066503     Delta-E=       -0.004841253998 Grad=5.350D-02 Max rot=    0.5856 deg.
 Gradient too large for Newton-Raphson -- use scaled steepest descent instead.
 Alpha Gap=     0.220 HL deriv= 3.56D-05
  Beta Gap=     0.210 HL deriv= 9.70D-07
     ILin= 1 X=0.000D+00 Y=-7.940548690665D+01 DE= 0.00D+00 F= -2.08D-03
     ILin= 2 X=5.000D-01 Y=-7.940627914514D+01 DE=-7.92D-04 F= -1.09D-03
     ILin= 3 X=1.100D+00 Y=-7.940657465252D+01 DE=-1.09D-03 F=  1.02D-04
     Accept linear search using points  2 and  3.
     An  expanding polynomial of degree  3 produced  0.9435
 Iteration   6 EE= -79.4065663591167     Delta-E=       -0.001079452466 Grad=1.860D-02 Max rot=    0.3270 deg.
 Gradient too large for Newton-Raphson -- use scaled steepest descent instead.
 Alpha Gap=     0.182 HL deriv= 6.91D-06
  Beta Gap=     0.209 HL deriv= 3.30D-06
     ILin= 1 X=0.000D+00 Y=-7.940656635912D+01 DE= 0.00D+00 F= -8.37D-04
     ILin= 2 X=6.000D-01 Y=-7.940676679513D+01 DE=-2.00D-04 F=  1.68D-04
     Accept linear search using points  1 and  2.
     An  expanding polynomial of degree  2 produced  0.3972
 Iteration   7 EE= -79.4067665940806     Delta-E=       -0.000200234964 Grad=1.097D-02 Max rot=    0.2279 deg.
 Gradient too large for Newton-Raphson -- use scaled steepest descent instead.
 Alpha Gap=     0.221 HL deriv= 5.38D-06
  Beta Gap=     0.210 HL deriv= 2.84D-06
     ILin= 1 X=0.000D+00 Y=-7.940676659408D+01 DE= 0.00D+00 F= -3.23D-04
     ILin= 2 X=6.000D-01 Y=-7.940692730403D+01 DE=-1.61D-04 F= -2.13D-04
     ILin= 3 X=1.200D+00 Y=-7.940702235869D+01 DE=-2.56D-04 F= -1.04D-04
     ILin= 4 X=2.400D+00 Y=-7.940702244450D+01 DE=-2.56D-04 F=  1.01D-04
     Accept linear search using points  3 and  4.
     An  expanding polynomial of degree  4 produced  1.7953
 Iteration   8 EE= -79.4070531924998     Delta-E=       -0.000286598419 Grad=2.350D-02 Max rot=    0.4456 deg.
 Gradient too large for Newton-Raphson -- use scaled steepest descent instead.
 Alpha Gap=     0.163 HL deriv= 1.07D-05
  Beta Gap=     0.210 HL deriv= 2.89D-06
     ILin= 1 X=0.000D+00 Y=-7.940705319250D+01 DE= 0.00D+00 F= -1.22D-03
     ILin= 2 X=8.000D-01 Y=-7.940692124402D+01 DE= 1.32D-04 F=  1.47D-03
     Reject lnstep minimum 3.600D-01 FVal=-7.940732682709D+01 Lims=  0.00D+00  8.00D-01
     ILin= 3 X=4.000D-01 Y=-7.940726137182D+01 DE=-2.08D-04 F=  1.87D-04
     A contracting polynomial of degree  3 produced  0.3519
 Iteration   9 EE= -79.4072662970333     Delta-E=       -0.000213104533 Grad=7.683D-03 Max rot=    0.2319 deg.
 QCNR:  CnvC1=3.60D-09 CnvC2=3.60D-08
 LinEq1:  Iter=  0 NonCon=     1 RMS=5.68D-04 Max=1.73D-02 NDo=     1
 LinEq1:  Iter=  1 NonCon=     1 RMS=4.43D-04 Max=1.12D-02 NDo=     1
 LinEq1:  Iter=  2 NonCon=     1 RMS=9.59D-05 Max=1.17D-03 NDo=     1
 LinEq1:  Iter=  3 NonCon=     1 RMS=5.47D-05 Max=7.57D-04 NDo=     1
 LinEq1:  Iter=  4 NonCon=     1 RMS=3.45D-05 Max=4.59D-04 NDo=     1
 LinEq1:  Iter=  5 NonCon=     1 RMS=1.61D-05 Max=2.49D-04 NDo=     1
 LinEq1:  Iter=  6 NonCon=     1 RMS=3.50D-06 Max=6.52D-05 NDo=     1
 LinEq1:  Iter=  7 NonCon=     1 RMS=1.31D-06 Max=1.84D-05 NDo=     1
 LinEq1:  Iter=  8 NonCon=     1 RMS=5.70D-07 Max=5.93D-06 NDo=     1
 LinEq1:  Iter=  9 NonCon=     1 RMS=2.70D-07 Max=3.43D-06 NDo=     1
 LinEq1:  Iter= 10 NonCon=     1 RMS=8.80D-08 Max=1.01D-06 NDo=     1
 LinEq1:  Iter= 11 NonCon=     1 RMS=3.02D-08 Max=4.02D-07 NDo=     1
 LinEq1:  Iter= 12 NonCon=     1 RMS=1.29D-08 Max=2.65D-07 NDo=     1
 LinEq1:  Iter= 13 NonCon=     1 RMS=5.80D-09 Max=1.30D-07 NDo=     1
 LinEq1:  Iter= 14 NonCon=     0 RMS=1.99D-09 Max=2.02D-08 NDo=     1
 Linear equations converged to 3.600D-09 3.600D-08 after    14 iterations.
 Angle between quadratic step and gradient=  51.86 degrees.
     ILin= 1 X=0.000D+00 Y=-7.940726629703D+01 DE= 0.00D+00 F= -5.12D-03
     ILin= 2 X=1.000D+00 Y=-7.940846461349D+01 DE=-1.20D-03 F=  4.61D-03
     Accept linear search using points  1 and  2.
     An  expanding polynomial of degree  2 produced  0.6609
 Iteration  10 EE= -79.4091998226655     Delta-E=       -0.001933525632 Grad=2.088D-02 Max rot=    0.1920 deg.
 Gradient too large for Newton-Raphson -- use scaled steepest descent instead.
 Alpha Gap=     0.224 HL deriv= 7.96D-06
  Beta Gap=     0.212 HL deriv= 3.85D-06
     ILin= 1 X=0.000D+00 Y=-7.940919982267D+01 DE= 0.00D+00 F= -4.54D-04
     ILin= 2 X=8.000D-01 Y=-7.940936191277D+01 DE=-1.62D-04 F=  4.81D-05
     Accept linear search using points  1 and  2.
     An  expanding polynomial of degree  2 produced  0.6749
 Iteration  11 EE= -79.4093630281089     Delta-E=       -0.000163205443 Grad=9.336D-03 Max rot=    0.0938 deg.
 QCNR:  CnvC1=3.60D-09 CnvC2=3.60D-08
 LinEq1:  Iter=  0 NonCon=     1 RMS=3.08D-04 Max=4.99D-03 NDo=     1
 LinEq1:  Iter=  1 NonCon=     1 RMS=3.91D-04 Max=6.77D-03 NDo=     1
 LinEq1:  Iter=  2 NonCon=     1 RMS=2.05D-04 Max=4.14D-03 NDo=     1
 LinEq1:  Iter=  3 NonCon=     1 RMS=1.89D-04 Max=2.72D-03 NDo=     1
 LinEq1:  Iter=  4 NonCon=     1 RMS=6.77D-05 Max=7.88D-04 NDo=     1
 LinEq1:  Iter=  5 NonCon=     1 RMS=2.02D-05 Max=3.32D-04 NDo=     1
 LinEq1:  Iter=  6 NonCon=     1 RMS=6.43D-06 Max=1.04D-04 NDo=     1
 LinEq1:  Iter=  7 NonCon=     1 RMS=2.58D-06 Max=4.07D-05 NDo=     1
[...]
                 (?G) (?H) (?H) (?G) (?G) (?H) (?H) (?G) (?H) (?G)
                 (?H) (?I) (?I) (?I) (?I) (?J) (?J) (?J) (SG) (SG)
                 (PI) (PI) (SG) (?K) (?K) (PHI) (PHI) (?L) (?L)
                 (PI) (PI) (?L) (PHI) (PHI) (?L) (?L) (PI) (PI)
                 (?L) (?L) (?L) (?L) (PI) (PI) (SG) (SG) (SG) (SG)
                 (SG)
    12 initial guesses have been made.
 Convergence on wavefunction:    0.001000000000000
 Davidson Disk Diagonalization:  ConvIn= 1.00D-03 SkipCon=T Conv= 1.00D-03.
 Max sub-space:  2000 roots to seek:    12 dimension of matrix:         1296
 Iteration     1 Dimension    12 NMult     0 NNew     12
 Estimated number of processors is:   20
 CISAX will form     1 AO SS matrices at one time.
 NMat=     1 NSing=     1 JSym2X= 2.
 FoFJK:  IHMeth= 1 ICntrl=       0 DoSepK=F KAlg= 0 I1Cent=           0 FoldK=F
 IRaf= 990000000 NMat=       1 IRICut=       1 DoRegI=T DoRafI=F ISym2E= 2 IDoP0=0 IntGTp=1.
 FoFCou: FMM=F IPFlag=           0 FMFlag=      100000 FMFlg1=           0
         NFxFlg=           0 DoJE=F BraDBF=F KetDBF=F FulRan=T
         wScrn=  0.000000 ICntrl=         0 IOpCl=  1 I1Cent=           0 NGrid=           0
         NMat0=    1 NMatS0=      1 NMatT0=    0 NMatD0=    1 NMtDS0=    0 NMtDT0=    0
 Integrals replicated using symmetry in FoFCou.
 CoulSu:  requested number of processors reduced to:  20 ShMem   1 Linda.
 NMat=     1 NSing=     1 JSym2X= 2.
 CoulSu:  requested number of processors reduced to:  20 ShMem   1 Linda.
 NMat=     1 NSing=     1 JSym2X= 2.
 CoulSu:  requested number of processors reduced to:  20 ShMem   1 Linda.
 NMat=     1 NSing=     1 JSym2X= 2.
 CoulSu:  requested number of processors reduced to:  20 ShMem   1 Linda.
 NMat=     1 NSing=     1 JSym2X= 2.
 CoulSu:  requested number of processors reduced to:  20 ShMem   1 Linda.
 NMat=     1 NSing=     1 JSym2X= 2.
 CoulSu:  requested number of processors reduced to:  20 ShMem   1 Linda.
 NMat=     1 NSing=     1 JSym2X= 2.
 CoulSu:  requested number of processors reduced to:  20 ShMem   1 Linda.
 NMat=     1 NSing=     1 JSym2X= 2.
 CoulSu:  requested number of processors reduced to:  20 ShMem   1 Linda.
 NMat=     1 NSing=     1 JSym2X= 2.
 CoulSu:  requested number of processors reduced to:  20 ShMem   1 Linda.
 NMat=     1 NSing=     1 JSym2X= 2.
 CoulSu:  requested number of processors reduced to:  20 ShMem   1 Linda.
 NMat=     1 NSing=     1 JSym2X= 2.
 CoulSu:  requested number of processors reduced to:  20 ShMem   1 Linda.
 NMat=     1 NSing=     1 JSym2X= 2.
 CoulSu:  requested number of processors reduced to:  20 ShMem   1 Linda.
 Excitation Energies [eV] at current iteration:
 Root      1 :     0.232125685197836
 Root      2 :     0.838990450986443
 Root      3 :     3.116799650631863
 Root      4 :     3.269289066658459
 Root      5 :     4.383000160306250
 Root      6 :     6.392367411082073
 Root      7 :     7.255159154203947
 Root      8 :     7.449142451008393
 Root      9 :     7.760304048957116
 Root     10 :     8.377749791594550
 Root     11 :     9.167624455038299
 Root     12 :    14.774612987696800
 Iteration     2 Dimension    24 NMult    12 NNew     12
 Estimated number of processors is:   20
 CISAX will form     1 AO SS matrices at one time.
 NMat=     1 NSing=     1 JSym2X= 2.
 CoulSu:  requested number of processors reduced to:  20 ShMem   1 Linda.
 NMat=     1 NSing=     1 JSym2X= 2.
 CoulSu:  requested number of processors reduced to:  20 ShMem   1 Linda.
 NMat=     1 NSing=     1 JSym2X= 2.
 CoulSu:  requested number of processors reduced to:  20 ShMem   1 Linda.
 NMat=     1 NSing=     1 JSym2X= 2.
 CoulSu:  requested number of processors reduced to:  20 ShMem   1 Linda.
 NMat=     1 NSing=     1 JSym2X= 2.
 CoulSu:  requested number of processors reduced to:  20 ShMem   1 Linda.
 NMat=     1 NSing=     1 JSym2X= 2.
 CoulSu:  requested number of processors reduced to:  20 ShMem   1 Linda.
 NMat=     1 NSing=     1 JSym2X= 2.
 CoulSu:  requested number of processors reduced to:  20 ShMem   1 Linda.
 NMat=     1 NSing=     1 JSym2X= 2.
 CoulSu:  requested number of processors reduced to:  20 ShMem   1 Linda.
 NMat=     1 NSing=     1 JSym2X= 2.
 CoulSu:  requested number of processors reduced to:  20 ShMem   1 Linda.
 NMat=     1 NSing=     1 JSym2X= 2.
 CoulSu:  requested number of processors reduced to:  20 ShMem   1 Linda.
 NMat=     1 NSing=     1 JSym2X= 2.
 CoulSu:  requested number of processors reduced to:  20 ShMem   1 Linda.
 NMat=     1 NSing=     1 JSym2X= 2.
 CoulSu:  requested number of processors reduced to:  20 ShMem   1 Linda.
 Root      1 not converged, maximum delta is    0.078905629483404
 Excitation Energies [eV] at current iteration:
 Root      1 :     0.002989101229952   Change is   -0.229136583967885
 Root      2 :     0.346460448719051   Change is   -0.492530002267392
 Root      3 :     2.402387105917330   Change is   -0.714412544714534
 Root      4 :     2.436024440511019   Change is   -0.833264626147440
 Root      5 :     3.766447886182847   Change is   -0.616552274123403
 Root      6 :     4.574874280706034   Change is   -1.817493130376039
 Root      7 :     6.154461378152077   Change is   -1.100697776051869
 Root      8 :     6.353178917834523   Change is   -2.814445537203776
 Root      9 :     6.772837163786685   Change is   -0.676305287221709
 Root     10 :     7.088724072413902   Change is   -0.671579976543215
 Root     11 :     7.591504390751068   Change is   -0.786245400843482
 Root     12 :    10.420340887569170
 Iteration     3 Dimension    27 NMult    24 NNew      3
 Estimated number of processors is:   20
 CISAX will form     1 AO SS matrices at one time.
 NMat=     1 NSing=     1 JSym2X= 2.
 CoulSu:  requested number of processors reduced to:  20 ShMem   1 Linda.
 NMat=     1 NSing=     1 JSym2X= 2.
 CoulSu:  requested number of processors reduced to:  20 ShMem   1 Linda.
 NMat=     1 NSing=     1 JSym2X= 2.
 CoulSu:  requested number of processors reduced to:  20 ShMem   1 Linda.
 Root      1 not converged, maximum delta is    0.005386593083291
 Excitation Energies [eV] at current iteration:
 Root      1 :     0.000102813113418   Change is   -0.002886288116534
 Root      2 :     0.290579685992762   Change is   -0.055880762726289
 Root      3 :     2.324221020232886   Change is   -0.078166085684444
 Iteration     4 Dimension    30 NMult    27 NNew      3
 Estimated number of processors is:   20
 CISAX will form     1 AO SS matrices at one time.
 NMat=     1 NSing=     1 JSym2X= 2.
 CoulSu:  requested number of processors reduced to:  20 ShMem   1 Linda.
 NMat=     1 NSing=     1 JSym2X= 2.
 CoulSu:  requested number of processors reduced to:  20 ShMem   1 Linda.
 NMat=     1 NSing=     1 JSym2X= 2.
 CoulSu:  requested number of processors reduced to:  20 ShMem   1 Linda.
 Root      1 not converged, maximum delta is    0.001532509993593
 Excitation Energies [eV] at current iteration:
 Root      1 :     0.000044678542427   Change is   -0.000058134570991
 Root      2 :     0.284945444643589   Change is   -0.005634241349173
 Root      3 :     2.320894398669246   Change is   -0.003326621563640
 Iteration     5 Dimension    33 NMult    30 NNew      3
 Estimated number of processors is:   20
 CISAX will form     1 AO SS matrices at one time.
 NMat=     1 NSing=     1 JSym2X= 2.
 CoulSu:  requested number of processors reduced to:  20 ShMem   1 Linda.
 NMat=     1 NSing=     1 JSym2X= 2.
 CoulSu:  requested number of processors reduced to:  20 ShMem   1 Linda.
 NMat=     1 NSing=     1 JSym2X= 2.
 CoulSu:  requested number of processors reduced to:  20 ShMem   1 Linda.
 Root      1 has converged.
 Excitation Energies [eV] at current iteration:
 Root      1 :     0.000043357182746   Change is   -0.000001321359680
 Root      2 :     0.284593548045178   Change is   -0.000351896598412
 Root      3 :     2.320772887232621   Change is   -0.000121511436625
 Convergence achieved on expansion vectors.
 ***********************************************************************
 Stability analysis using <AA,BB:AA,BB> singles matrix:
 ***********************************************************************
 1PDM for each excited state written to RWF  633
 Ground to excited state transition densities written to RWF  633

 Eigenvectors of the stability matrix:
 
 Excited state symmetry could not be determined.
 Eigenvector   1:  2.251-?Sym  Eigenvalue= 0.0000016  <S**2>=1.017
      6B ->  7B        0.98278
      6B ->  9B       -0.15014
 The wavefunction is stable under the perturbations considered.
 Leave Link  914 at Sun Apr 18 03:56:07 2021, MaxMem=   104857600 cpu:            2379.9 elap:              62.0
 (Enter /s/ls4/users/knvvv/bin/g16sse/l508.exe)
 The wavefunction is already stable.
 Leave Link  508 at Sun Apr 18 03:56:07 2021, MaxMem=   104857600 cpu:               2.2 elap:               0.1
 (Enter /s/ls4/users/knvvv/bin/g16sse/l601.exe)
 Copying SCF densities to generalized density rwf, IOpCl= 1 IROHF=0.
 SCF density gives NOpUse=  1 NOpAll=  4.
 Marking SCF density as not fully symmetric.

 **********************************************************************

            Population analysis using the SCF density.

 **********************************************************************

 Orbital symmetries:
 Alpha Orbitals:
       Occupied  (SG) (SG) (SG) (SG) (PI) (PI)
       Virtual   (SG) (?A) (?A) (SG) (SG) (?A) (?A) (SG) (?B) (?B)
                 (?B) (?A) (?A) (?A) (?A) (SG) (PI) (PI) (SG) (SG)
                 (?C) (?C) (?C) (?D) (?D) (?D) (?D) (?E) (PI) (PI)
                 (?E) (?E) (SG) (PI) (DLTA) (DLTA) (PI) (SG) (PI)
                 (PI) (SG) (PI) (PI) (SG) (PHI) (PHI) (?F) (?F)
                 (?F) (PI) (PI) (?G) (?G) (PI) (?H) (?H) (PI) (?G)
                 (PHI) (PHI) (?I) (?I) (?I) (PI) (PI) (?J) (?J)
                 (PHI) (PHI) (?J) (PI) (PI) (PI) (PI) (?K) (?K)
                 (?K) (?K) (SG) (PI) (PI) (SG) (?H) (?H) (PHI)
                 (PHI) (?L) (?L) (PI) (PI) (?L) (PHI) (PHI) (?L)
                 (?L) (PI) (?L) (?L) (PI) (?L) (?L) (PI) (PI) (SG)
                 (SG) (SG) (SG) (SG)
 Beta  Orbitals:
       Occupied  (SG) (SG) (SG) (SG) (SG) (?A)
       Virtual   (?A) (?A) (?A) (SG) (?B) (?A) (?A) (?B) (?A) (?B)
                 (?B) (?A) (?B) (?A) (?A) (?B) (?A) (?A) (?B) (SG)
                 (?B) (?B) (SG) (PI) (?C) (?C) (PI) (?D) (?D) (PI)
                 (PI) (?D) (?C) (?D) (?D) (SG) (?C) (SG) (PI) (PI)
                 (SG) (PI) (PI) (SG) (PHI) (PHI) (?E) (?E) (?E)
                 (PI) (PI) (?E) (?E) (?F) (?F) (?G) (?F) (?G) (?G)
                 (?G) (?H) (?H) (?G) (?G) (?H) (?H) (?G) (?H) (?G)
                 (?H) (?I) (?I) (?I) (?I) (?J) (?J) (?J) (SG) (SG)
                 (PI) (PI) (SG) (?K) (?K) (PHI) (PHI) (?L) (?L)
                 (PI) (PI) (?L) (PHI) (PHI) (?L) (?L) (PI) (PI)
                 (?L) (?L) (?L) (?L) (PI) (PI) (SG) (SG) (SG) (SG)
                 (SG)
 Unable to determine electronic state:  an orbital has unidentified symmetry.
 Alpha  occ. eigenvalues --  -14.78690  -7.12710  -0.94751  -0.44837  -0.42558
 Alpha  occ. eigenvalues --   -0.39170
 Alpha virt. eigenvalues --   -0.17472   0.00753   0.01700   0.04574   0.09425
 Alpha virt. eigenvalues --    0.10757   0.11508   0.19637   0.27904   0.27965
 Alpha virt. eigenvalues --    0.28119   0.30873   0.31220   0.33554   0.34097
 Alpha virt. eigenvalues --    0.40304   0.50012   0.50018   0.54313   0.65946
 Alpha virt. eigenvalues --    0.81143   0.81276   0.95055   0.98981   0.99468
 Alpha virt. eigenvalues --    1.02694   1.02694   1.04040   1.08381   1.09578
 Alpha virt. eigenvalues --    1.09949   1.10059   1.20377   1.21853   1.22615
 Alpha virt. eigenvalues --    1.22648   1.24208   1.48609   1.51467   1.52470
 Alpha virt. eigenvalues --    1.65893   1.92687   1.94288   2.17514   2.42593
 Alpha virt. eigenvalues --    2.42657   2.58349   2.62312   2.62474   2.81217
 Alpha virt. eigenvalues --    2.83961   2.98415   2.98425   3.06234   3.06371
 Alpha virt. eigenvalues --    3.06378   3.06780   3.12052   3.20930   3.20960
 Alpha virt. eigenvalues --    3.36970   3.37077   3.38177   3.47513   3.48487
 Alpha virt. eigenvalues --    3.55256   3.55404   3.58961   3.58969   3.61157
 Alpha virt. eigenvalues --    3.86977   3.89396   3.91408   3.94521   4.03008
 Alpha virt. eigenvalues --    4.03055   4.07737   4.32283   5.13351   5.33549
 Alpha virt. eigenvalues --    5.37216   6.12738   6.69074   6.69088   6.88394
 Alpha virt. eigenvalues --    6.88400   7.39282   7.39484   7.49914   7.54228
 Alpha virt. eigenvalues --    7.61621   8.26525   8.26554   8.60407   8.60485
 Alpha virt. eigenvalues --    8.90689   8.93108   8.93356   8.95349   9.00226
 Alpha virt. eigenvalues --    9.71062   9.78778   9.83946  10.73146  19.31065
 Alpha virt. eigenvalues --   37.01448 100.76519 194.54954
  Beta  occ. eigenvalues --  -14.78083  -7.13834  -0.89811  -0.45532  -0.37610
  Beta  occ. eigenvalues --   -0.37254
  Beta virt. eigenvalues --   -0.16270   0.03010   0.04995   0.07212   0.08580
  Beta virt. eigenvalues --    0.10052   0.10429   0.24679   0.30093   0.30104
  Beta virt. eigenvalues --    0.31047   0.31762   0.35094   0.42150   0.44241
  Beta virt. eigenvalues --    0.45434   0.48772   0.50336   0.54441   0.74090
  Beta virt. eigenvalues --    0.84736   0.85385   0.96944   1.04439   1.05150
  Beta virt. eigenvalues --    1.05600   1.05707   1.11952   1.12063   1.14697
  Beta virt. eigenvalues --    1.16681   1.19392   1.27669   1.28300   1.28617
  Beta virt. eigenvalues --    1.29134   1.30239   1.51223   1.57633   1.59263
  Beta virt. eigenvalues --    1.68780   1.95852   1.97161   2.28850   2.44724
  Beta virt. eigenvalues --    2.45573   2.65012   2.65901   2.67489   2.86726
  Beta virt. eigenvalues --    2.88051   2.99704   3.00217   3.06351   3.07243
  Beta virt. eigenvalues --    3.24073   3.24948   3.25204   3.26617   3.26779
  Beta virt. eigenvalues --    3.42365   3.44079   3.50067   3.51654   3.53635
  Beta virt. eigenvalues --    3.55415   3.56204   3.56308   3.56502   3.66287
  Beta virt. eigenvalues --    3.95298   3.95422   3.97960   3.98360   4.08106
  Beta virt. eigenvalues --    4.08254   4.12882   4.33186   5.21530   5.45863
  Beta virt. eigenvalues --    5.47055   6.19156   6.75972   6.78462   6.95184
  Beta virt. eigenvalues --    6.96825   7.46353   7.48645   7.54636   7.58445
  Beta virt. eigenvalues --    7.62354   8.41621   8.45669   8.70039   8.72563
  Beta virt. eigenvalues --    8.96994   9.01690   9.04805   9.11106   9.11677
  Beta virt. eigenvalues --    9.77313   9.88154   9.95172  10.81344  19.28868
  Beta virt. eigenvalues --   37.14783 100.76404 194.57330
          Condensed to atoms (all electrons):
               1          2
     1  B    3.980826   0.755736
     2  N    0.755736   6.507702
          Atomic-Atomic Spin Densities.
               1          2
     1  B   -1.030575   0.214509
     2  N    0.214509   0.601557
 Mulliken charges and spin densities:
               1          2
     1  B    0.263438  -0.816066
     2  N   -0.263438   0.816066
 Sum of Mulliken charges =   0.00000   0.00000
 Mulliken charges and spin densities with hydrogens summed into heavy atoms:
               1          2
     1  B    0.263438  -0.816066
     2  N   -0.263438   0.816066
 Electronic spatial extent (au):  <R**2>=             42.5048
 Charge=              0.0000 electrons
 Dipole moment (field-independent basis, Debye):
    X=              0.0000    Y=              0.0000    Z=             -2.3514  Tot=              2.3514
 Quadrupole moment (field-independent basis, Debye-Ang):
   XX=            -12.0549   YY=            -10.1452   ZZ=            -11.9097
   XY=              0.0133   XZ=             -0.0000   YZ=             -0.0000
 Traceless Quadrupole moment (field-independent basis, Debye-Ang):
   XX=             -0.6850   YY=              1.2248   ZZ=             -0.5398
   XY=              0.0133   XZ=             -0.0000   YZ=             -0.0000
 Octapole moment (field-independent basis, Debye-Ang**2):
  XXX=              0.0000  YYY=              0.0000  ZZZ=              1.7873  XYY=              0.0000
  XXY=              0.0000  XXZ=              0.5955  XZZ=              0.0000  YZZ=              0.0000
  YYZ=              0.4926  XYZ=             -0.0007
 Hexadecapole moment (field-independent basis, Debye-Ang**3):
 XXXX=            -15.5196 YYYY=            -11.3834 ZZZZ=            -48.4548 XXXY=              0.0143
 XXXZ=             -0.0000 YYYX=              0.0145 YYYZ=             -0.0000 ZZZX=             -0.0000
 ZZZY=             -0.0000 XXYY=             -4.4884 XXZZ=            -10.1090 YYZZ=             -8.9954
 XXYZ=             -0.0000 YYXZ=             -0.0000 ZZXY=              0.0077
 N-N= 1.443585532518D+01 E-N=-2.144729033224D+02  KE= 7.923640747709D+01
                          Isotropic Fermi Contact Couplings
        Atom                 a.u.       MegaHertz       Gauss      10(-4) cm-1
     1  B(11)             -0.65975    -473.16121    -168.83568    -157.82959
     2  N(14)              0.09548      15.42532       5.50414       5.14533
 PrsmSu:  requested number of processors reduced to:  21 ShMem   1 Linda.
 --------------------------------------------------------
       Center         ----  Spin Dipole Couplings  ----
                      3XX-RR        3YY-RR        3ZZ-RR
 --------------------------------------------------------
     1   Atom       -0.011195      0.388529     -0.377334
     2   Atom       -0.387967      1.753648     -1.365681
 --------------------------------------------------------
                        XY            XZ            YZ
 --------------------------------------------------------
     1   Atom        0.002778     -0.000000     -0.000001
     2   Atom        0.014884     -0.000000      0.000004
 --------------------------------------------------------


 ---------------------------------------------------------------------------------
              Anisotropic Spin Dipole Couplings in Principal Axis System
 ---------------------------------------------------------------------------------

       Atom             a.u.   MegaHertz   Gauss  10(-4) cm-1        Axes

              Baa    -0.3773   -64.605   -23.053   -21.550  0.0000  0.0000  1.0000
     1 B(11)  Bbb    -0.0112    -1.920    -0.685    -0.640  1.0000 -0.0069 -0.0000
              Bcc     0.3885    66.525    23.738    22.190  0.0069  1.0000 -0.0000
 
              Baa    -1.3657   -52.671   -18.794   -17.569  0.0000 -0.0000  1.0000
     2 N(14)  Bbb    -0.3881   -14.967    -5.341    -4.992  1.0000 -0.0069 -0.0000
              Bcc     1.7538    67.638    24.135    22.562  0.0069  1.0000  0.0000
 

 ---------------------------------------------------------------------------------

 PrsmSu:  requested number of processors reduced to:  21 ShMem   1 Linda.
 No NMR shielding tensors so no spin-rotation constants.
 Leave Link  601 at Sun Apr 18 03:56:10 2021, MaxMem=   104857600 cpu:              99.3 elap:               2.3
 (Enter /s/ls4/users/knvvv/bin/g16sse/l9999.exe)

 Test job not archived.
 1\1\GINC-N305\Stability\UM062X\def2QZVP\B1N1\KNVVV\18-Apr-2021\0\\#P M
 062X/Def2QZVP Integral=UltraFineGrid SCF=NoSymm Stable=(RExt, Opt) IOp
 (1/33=1)\\Database calculations.\\0,1\B,0,0.,0.,0.\N,0,0.,0.,1.283\\Ve
 rsion=ES64L-G16RevA.03\State=1-SG\HF=-79.409561\S2=1.015468\S2-1=0.\S2
 A=0.122514\RMSD=9.357e-09\Dipole=0.,0.0000007,-0.9251214\Quadrupole=-0
 .5092775,0.9106012,-0.4013237,0.0098682,-0.0000001,0.\PG=C*V [C*(B1N1)
 ]\\@


 IF YOU GET CONFUSED, LOGIC OUT YOUR DILEMMA

           --  PICKER X-RAY CORP.    DIGITAL PRINTER MANUAL CA. 1964
 Job cpu time:       1 days  7 hours 41 minutes  0.3 seconds.
 Elapsed time:       0 days  0 hours 41 minutes 52.6 seconds.
 File lengths (MBytes):  RWF=     57 Int=      0 D2E=      0 Chk=      3 Scr=      1
 Normal termination of Gaussian 16 at Sun Apr 18 03:56:10 2021.
