 Entering Gaussian System, Link 0=/s/ls4/users/knvvv/bin/g16sse/g16
 Input=data/database/M062X--def2-QZVPPD--223_oxirane_W4-11.gjf
 Output=data/database/M062X--def2-QZVPPD--223_oxirane_W4-11.log
 Initial command:
 /s/ls4/users/knvvv/bin/g16sse/l1.exe "/s/ls4/users/knvvv/bin/scratch/Gau-30560.inp" -scrdir="/s/ls4/users/knvvv/bin/scratch/"
 Entering Link 1 = /s/ls4/users/knvvv/bin/g16sse/l1.exe PID=     30561.
  
 Copyright (c) 1988,1990,1992,1993,1995,1998,2003,2009,2016,
            Gaussian, Inc.  All Rights Reserved.
  
 This is part of the Gaussian(R) 16 program.  It is based on
 the Gaussian(R) 09 system (copyright 2009, Gaussian, Inc.),
 the Gaussian(R) 03 system (copyright 2003, Gaussian, Inc.),
 the Gaussian(R) 98 system (copyright 1998, Gaussian, Inc.),
 the Gaussian(R) 94 system (copyright 1995, Gaussian, Inc.),
 the Gaussian 92(TM) system (copyright 1992, Gaussian, Inc.),
 the Gaussian 90(TM) system (copyright 1990, Gaussian, Inc.),
 the Gaussian 88(TM) system (copyright 1988, Gaussian, Inc.),
 the Gaussian 86(TM) system (copyright 1986, Carnegie Mellon
 University), and the Gaussian 82(TM) system (copyright 1983,
 Carnegie Mellon University). Gaussian is a federally registered
 trademark of Gaussian, Inc.
  
 This software contains proprietary and confidential information,
 including trade secrets, belonging to Gaussian, Inc.
  
 This software is provided under written license and may be
 used, copied, transmitted, or stored only in accord with that
 written license.
  
 The following legend is applicable only to US Government
 contracts under FAR:
  
                    RESTRICTED RIGHTS LEGEND
  
 Use, reproduction and disclosure by the US Government is
 subject to restrictions as set forth in subparagraphs (a)
 and (c) of the Commercial Computer Software - Restricted
 Rights clause in FAR 52.227-19.
  
 Gaussian, Inc.
 340 Quinnipiac St., Bldg. 40, Wallingford CT 06492
  
  
 ---------------------------------------------------------------
 Warning -- This program may not be used in any manner that
 competes with the business of Gaussian, Inc. or will provide
 assistance to any competitor of Gaussian, Inc.  The licensee
 of this program is prohibited from giving any competitor of
 Gaussian, Inc. access to this program.  By using this program,
 the user acknowledges that Gaussian, Inc. is engaged in the
 business of creating and licensing software in the field of
 computational chemistry and represents and warrants to the
 licensee that it is not a competitor of Gaussian, Inc. and that
 it will not use this program in any manner prohibited above.
 ---------------------------------------------------------------
  

 Cite this work as:
 Gaussian 16, Revision A.03,
 M. J. Frisch, G. W. Trucks, H. B. Schlegel, G. E. Scuseria, 
 M. A. Robb, J. R. Cheeseman, G. Scalmani, V. Barone, 
 G. A. Petersson, H. Nakatsuji, X. Li, M. Caricato, A. V. Marenich, 
 J. Bloino, B. G. Janesko, R. Gomperts, B. Mennucci, H. P. Hratchian, 
 J. V. Ortiz, A. F. Izmaylov, J. L. Sonnenberg, D. Williams-Young, 
 F. Ding, F. Lipparini, F. Egidi, J. Goings, B. Peng, A. Petrone, 
 T. Henderson, D. Ranasinghe, V. G. Zakrzewski, J. Gao, N. Rega, 
 G. Zheng, W. Liang, M. Hada, M. Ehara, K. Toyota, R. Fukuda, 
 J. Hasegawa, M. Ishida, T. Nakajima, Y. Honda, O. Kitao, H. Nakai, 
 T. Vreven, K. Throssell, J. A. Montgomery, Jr., J. E. Peralta, 
 F. Ogliaro, M. J. Bearpark, J. J. Heyd, E. N. Brothers, K. N. Kudin, 
 V. N. Staroverov, T. A. Keith, R. Kobayashi, J. Normand, 
 K. Raghavachari, A. P. Rendell, J. C. Burant, S. S. Iyengar, 
 J. Tomasi, M. Cossi, J. M. Millam, M. Klene, C. Adamo, R. Cammi, 
 J. W. Ochterski, R. L. Martin, K. Morokuma, O. Farkas, 
 J. B. Foresman, and D. J. Fox, Gaussian, Inc., Wallingford CT, 2016.
 
 ******************************************
 Gaussian 16:  ES64L-G16RevA.03 25-Dec-2016
                17-Apr-2021 
 ******************************************
 %RWF=temp23_43340,70GB
 %nprocshared=48
 Will use up to   48 processors via shared memory.
 Default route: MaxDisk=80GB
 ----------------------------------------------------------------------
 #P M062X/GEN Integral=UltraFineGrid SCF=NoSymm Stable=(RExt, Opt) IOp(
 1/33=1)
 ----------------------------------------------------------------------
 1/33=1,38=1,172=1/1;
 2/12=2,17=6,18=5,40=1/2;
 3/5=7,11=2,25=1,30=1,74=-55,75=-5/1,2,3;
 4/9=2/1;
 5/5=2,38=5/2;
 6/7=2,8=2,9=2,10=2,28=1/1;
 8/6=1,10=90,11=11/1;
 9/8=-3,42=1,46=1/14;
 5/5=2,8=3,17=40,38=5/8(-2);
 6/7=2,8=2,9=2,10=2,28=1/1;
 99/5=1,9=1/99;
 Leave Link    1 at Sat Apr 17 19:26:21 2021, MaxMem=           0 cpu:               8.2 elap:               0.2
 (Enter /s/ls4/users/knvvv/bin/g16sse/l101.exe)
 ONIOM data not found on unit 2.
 ----------------------
 Database calculations.
 ----------------------
 TstMul:  ICh=     0
 TstMul:  Mul=     1
 TstMul:  ICh=     0
 TstMul:  Mul=     1
 Symbolic Z-matrix:
 Charge =  0 Multiplicity = 1
 O                     0.        0.        0. 
 C                     0.        0.        1.42934 
 C                     1.25777   0.        0.67898 
 H                    -0.34494  -0.91943   1.88717 
 H                    -0.34494   0.91943   1.88717 
 H                     1.82451  -0.91943   0.59293 
 H                     1.82451   0.91943   0.59293 
 
 RdStrC is calling ZToCFu for IStruc=1 NZ=     7.
 PrtBox:  NBox=     1 Levels=  1 BoxLen=    8.00 SMaxX=        4.10
          Shift=            0.651840            1.737468            0.000000
 Box      1 Number                   0 centers from      1 to      7:
 After GenITR:
 ITRead=  0  0  0  0  0  0  0
 MicOpt= -1 -1 -1 -1 -1 -1 -1
 ITRead=  0  0  0  0  0  0  0
 MicOpt= -1 -1 -1 -1 -1 -1 -1
 NAtoms=      7 NQM=        7 NQMF=       0 NMMI=      0 NMMIF=      0
                NMic=       0 NMicF=      0.
                    Isotopes and Nuclear Properties:
 (Nuclear quadrupole moments (NQMom) in fm**2, nuclear magnetic moments (NMagM)
  in nuclear magnetons)

  Atom         1           2           3           4           5           6           7
 IAtWgt=          16          12          12           1           1           1           1
 AtmWgt=  15.9949146  12.0000000  12.0000000   1.0078250   1.0078250   1.0078250   1.0078250
 NucSpn=           0           0           0           1           1           1           1
 AtZEff=  -0.0000000  -0.0000000  -0.0000000  -0.0000000  -0.0000000  -0.0000000  -0.0000000
 NQMom=    0.0000000   0.0000000   0.0000000   0.0000000   0.0000000   0.0000000   0.0000000
 NMagM=    0.0000000   0.0000000   0.0000000   2.7928460   2.7928460   2.7928460   2.7928460
 AtZNuc=   8.0000000   6.0000000   6.0000000   1.0000000   1.0000000   1.0000000   1.0000000
 No MM parameters found.
 Leave Link  101 at Sat Apr 17 19:26:22 2021, MaxMem=   104857600 cpu:               6.7 elap:               0.2
 (Enter /s/ls4/users/knvvv/bin/g16sse/l202.exe)
                          Input orientation:                          
 ---------------------------------------------------------------------
 Center     Atomic      Atomic             Coordinates (Angstroms)
 Number     Number       Type             X           Y           Z
 ---------------------------------------------------------------------
      1          8           0        0.000000    0.000000    0.000000
      2          6           0        0.000000    0.000000    1.429338
      3          6           0        1.257771    0.000000    0.678983
      4          1           0       -0.344939   -0.919428    1.887169
      5          1           0       -0.344939    0.919428    1.887169
      6          1           0        1.824506   -0.919428    0.592934
      7          1           0        1.824506    0.919428    0.592934
 ---------------------------------------------------------------------
                    Distance matrix (angstroms):
                    1          2          3          4          5
     1  O    0.000000
     2  C    1.429338   0.000000
     3  C    1.429338   1.464588   0.000000
     4  H    2.127378   1.083486   2.207655   0.000000
     5  H    2.127378   1.083486   2.207655   1.838856   0.000000
     6  H    2.127378   2.207655   1.083486   2.526170   3.124569
     7  H    2.127378   2.207655   1.083486   3.124569   2.526170
                    6          7
     6  H    0.000000
     7  H    1.838856   0.000000
 Stoichiometry    C2H4O
 Framework group  C2V[C2(O),SGV(C2),X(H4)]
 Deg. of freedom     5
 Full point group                 C2V     NOp   4
 Largest Abelian subgroup         C2V     NOp   4
 Largest concise Abelian subgroup C2V     NOp   4
                         Standard orientation:                         
 ---------------------------------------------------------------------
 Center     Atomic      Atomic             Coordinates (Angstroms)
 Number     Number       Type             X           Y           Z
 ---------------------------------------------------------------------
      1          8           0        0.000000   -0.000000    0.854408
      2          6           0        0.000000    0.732294   -0.373090
      3          6           0       -0.000000   -0.732294   -0.373090
      4          1           0        0.919428    1.263085   -0.589547
      5          1           0       -0.919428    1.263085   -0.589547
      6          1           0        0.919428   -1.263085   -0.589547
      7          1           0       -0.919428   -1.263085   -0.589547
 ---------------------------------------------------------------------
 Rotational constants (GHZ):          25.6507394          22.2541373          14.1976137
 Leave Link  202 at Sat Apr 17 19:26:22 2021, MaxMem=   104857600 cpu:              13.1 elap:               0.3
 (Enter /s/ls4/users/knvvv/bin/g16sse/l301.exe)
 General basis read from cards:  (5D, 7F)
 Centers:       4      5      6      7
 S 4 1.00
     Exponent=  1.9069169000D+02 Coefficients=  7.0815167000D-04
     Exponent=  2.8605532000D+01 Coefficients=  5.4678827000D-03
     Exponent=  6.5095943000D+00 Coefficients=  2.7966605000D-02
     Exponent=  1.8412455000D+00 Coefficients=  1.0764538000D-01
 S 1 1.00
     Exponent=  5.9853725000D-01 Coefficients=  1.0000000000D+00
 S 1 1.00
     Exponent=  2.1397624000D-01 Coefficients=  1.0000000000D+00
 S 1 1.00
     Exponent=  8.0316286000D-02 Coefficients=  1.0000000000D+00
 P 1 1.00
     Exponent=  2.2920000000D+00 Coefficients=  1.0000000000D+00
 P 1 1.00
     Exponent=  8.3800000000D-01 Coefficients=  1.0000000000D+00
 P 1 1.00
     Exponent=  2.9200000000D-01 Coefficients=  1.0000000000D+00
 P 1 1.00
     Exponent=  8.4063199228D-02 Coefficients=  1.0000000000D+00
 D 1 1.00
     Exponent=  2.0620000000D+00 Coefficients=  1.0000000000D+00
 D 1 1.00
     Exponent=  6.6200000000D-01 Coefficients=  1.0000000000D+00
 F 1 1.00
     Exponent=  1.3970000000D+00 Coefficients=  1.0000000000D+00
 ****
 Centers:       2      3
 S 8 1.00
     Exponent=  6.7025071029D+04 Coefficients=  3.8736308501D-05
     Exponent=  1.0039986538D+04 Coefficients=  3.0107917575D-04
     Exponent=  2.2849316911D+03 Coefficients=  1.5787918095D-03
     Exponent=  6.4714122130D+02 Coefficients=  6.6087087195D-03
     Exponent=  2.1109472335D+02 Coefficients=  2.3367123250D-02
     Exponent=  7.6177643862D+01 Coefficients=  7.0420716898D-02
     Exponent=  2.9633839163D+01 Coefficients=  1.7360344953D-01
     Exponent=  1.2187785081D+01 Coefficients=  3.2292305648D-01
 S 2 1.00
     Exponent=  5.3026006299D+01 Coefficients=  7.4897404492D-02
     Exponent=  1.5258502776D+01 Coefficients=  7.6136220983D-01
 S 1 1.00
     Exponent=  5.2403957464D+00 Coefficients=  1.0000000000D+00
 S 1 1.00
     Exponent=  2.2905022379D+00 Coefficients=  1.0000000000D+00
 S 1 1.00
     Exponent=  6.9673283006D-01 Coefficients=  1.0000000000D+00
 S 1 1.00
     Exponent=  2.7599337363D-01 Coefficients=  1.0000000000D+00
 S 1 1.00
     Exponent=  1.0739884389D-01 Coefficients=  1.0000000000D+00
 S 1 1.00
     Exponent=  4.4981404899D-02 Coefficients=  1.0000000000D+00
 P 5 1.00
     Exponent=  1.0512555082D+02 Coefficients=  8.4647553844D-04
     Exponent=  2.4884461066D+01 Coefficients=  6.6274038534D-03
     Exponent=  7.8637230826D+00 Coefficients=  3.0120390419D-02
     Exponent=  2.8407001835D+00 Coefficients=  9.9951435476D-02
     Exponent=  1.1227137335D+00 Coefficients=  2.3826299282D-01
 P 1 1.00
     Exponent=  4.6050725555D-01 Coefficients=  1.0000000000D+00
 P 1 1.00
     Exponent=  1.8937530913D-01 Coefficients=  1.0000000000D+00
 P 1 1.00
     Exponent=  7.5983791611D-02 Coefficients=  1.0000000000D+00
 D 1 1.00
     Exponent=  1.8480000000D+00 Coefficients=  1.0000000000D+00
 D 1 1.00
     Exponent=  6.4900000000D-01 Coefficients=  1.0000000000D+00
 D 1 1.00
     Exponent=  2.2800000000D-01 Coefficients=  1.0000000000D+00
 D 1 1.00
     Exponent=  7.6889830417D-02 Coefficients=  1.0000000000D+00
 F 1 1.00
     Exponent=  1.4190000000D+00 Coefficients=  1.0000000000D+00
 F 1 1.00
     Exponent=  4.8500000000D-01 Coefficients=  1.0000000000D+00
 G 1 1.00
     Exponent=  1.0110000000D+00 Coefficients=  1.0000000000D+00
 ****
 Centers:       1
 S 8 1.00
     Exponent=  1.1650646908D+05 Coefficients=  4.0383857939D-05
     Exponent=  1.7504349724D+04 Coefficients=  3.1255139004D-04
     Exponent=  3.9934513230D+03 Coefficients=  1.6341473495D-03
     Exponent=  1.1330063186D+03 Coefficients=  6.8283224757D-03
     Exponent=  3.6999569594D+02 Coefficients=  2.4124410221D-02
     Exponent=  1.3362074349D+02 Coefficients=  7.2730206154D-02
     Exponent=  5.2035643649D+01 Coefficients=  1.7934429892D-01
     Exponent=  2.1461939313D+01 Coefficients=  3.3059588895D-01
 S 2 1.00
     Exponent=  8.9835051252D+01 Coefficients=  9.6468652996D-02
     Exponent=  2.6428010844D+01 Coefficients=  9.4117481120D-01
 S 1 1.00
     Exponent=  9.2822824649D+00 Coefficients=  1.0000000000D+00
 S 1 1.00
     Exponent=  4.0947728533D+00 Coefficients=  1.0000000000D+00
 S 1 1.00
     Exponent=  1.3255349078D+00 Coefficients=  1.0000000000D+00
 S 1 1.00
     Exponent=  5.1877230787D-01 Coefficients=  1.0000000000D+00
 S 1 1.00
     Exponent=  1.9772676454D-01 Coefficients=  1.0000000000D+00
 S 1 1.00
     Exponent=  6.9638535104D-02 Coefficients=  1.0000000000D+00
 P 5 1.00
     Exponent=  1.9115255810D+02 Coefficients=  2.5115697705D-03
     Exponent=  4.5233356739D+01 Coefficients=  2.0039240864D-02
     Exponent=  1.4353465922D+01 Coefficients=  9.3609064762D-02
     Exponent=  5.2422371832D+00 Coefficients=  3.0618127124D-01
     Exponent=  2.0792418599D+00 Coefficients=  6.7810501439D-01
 P 1 1.00
     Exponent=  8.4282371424D-01 Coefficients=  1.0000000000D+00
 P 1 1.00
     Exponent=  3.3617694891D-01 Coefficients=  1.0000000000D+00
 P 1 1.00
     Exponent=  1.2863997974D-01 Coefficients=  1.0000000000D+00
 P 1 1.00
     Exponent=  4.3598162776D-02 Coefficients=  1.0000000000D+00
 D 1 1.00
     Exponent=  3.7750000000D+00 Coefficients=  1.0000000000D+00
 D 1 1.00
     Exponent=  1.3000000000D+00 Coefficients=  1.0000000000D+00
 D 1 1.00
     Exponent=  4.4400000000D-01 Coefficients=  1.0000000000D+00
 D 1 1.00
     Exponent=  1.2546378695D-01 Coefficients=  1.0000000000D+00
 F 1 1.00
     Exponent=  2.6660000000D+00 Coefficients=  1.0000000000D+00
 F 1 1.00
     Exponent=  8.5900000000D-01 Coefficients=  1.0000000000D+00
 G 1 1.00
     Exponent=  1.8460000000D+00 Coefficients=  1.0000000000D+00
 ****
 Ernie: Thresh=  0.10000D-02 Tol=  0.10000D-05 Strict=F.
 There are   128 symmetry adapted cartesian basis functions of A1  symmetry.
 There are    73 symmetry adapted cartesian basis functions of A2  symmetry.
 There are    82 symmetry adapted cartesian basis functions of B1  symmetry.
 There are   109 symmetry adapted cartesian basis functions of B2  symmetry.
 There are   102 symmetry adapted basis functions of A1  symmetry.
 There are    63 symmetry adapted basis functions of A2  symmetry.
 There are    70 symmetry adapted basis functions of B1  symmetry.
 There are    89 symmetry adapted basis functions of B2  symmetry.
   324 basis functions,   464 primitive gaussians,   392 cartesian basis functions
    12 alpha electrons       12 beta electrons
       nuclear repulsion energy        75.3165637570 Hartrees.
 IExCor= 4336 DFT=T Ex+Corr=M062X ExCW=0 ScaHFX=  0.540000
 ScaDFX=  1.000000  1.000000  1.000000  1.000000 ScalE2=  1.000000  1.000000
 IRadAn=      5 IRanWt=     -1 IRanGd=            0 ICorTp=0 IEmpDi=  4
 NAtoms=    7 NActive=    7 NUniq=    3 SFac= 4.00D+00 NAtFMM=   60 NAOKFM=F Big=F
 Integral buffers will be    131072 words long.
 Raffenetti 2 integral format.
 Two-electron integral symmetry is turned on.
 Leave Link  301 at Sat Apr 17 19:26:22 2021, MaxMem=   104857600 cpu:              11.1 elap:               0.3
 (Enter /s/ls4/users/knvvv/bin/g16sse/l302.exe)
 NPDir=0 NMtPBC=     1 NCelOv=     1 NCel=       1 NClECP=     1 NCelD=      1
         NCelK=      1 NCelE2=     1 NClLst=     1 CellRange=     0.0.
 One-electron integrals computed using PRISM.
 One-electron integral symmetry used in STVInt
 PrsmSu:  requested number of processors reduced to:   4 ShMem   1 Linda.
 PrsmSu:  requested number of processors reduced to:  21 ShMem   1 Linda.
 NBasis=   324 RedAO= T EigKep=  5.16D-06  NBF=   102    63    70    89
 NBsUse=   322 1.00D-06 EigRej=  8.25D-07 NBFU=   102    62    70    88
 Precomputing XC quadrature grid using
 IXCGrd= 4 IRadAn=           5 IRanWt=          -1 IRanGd=           0 AccXCQ= 0.00D+00.
 Generated NRdTot=       0 NPtTot=           0 NUsed=           0 NTot=          32
 NSgBfM=   392   392   392   392   392 MxSgAt=     7 MxSgA2=     7.
 Leave Link  302 at Sat Apr 17 19:26:33 2021, MaxMem=   104857600 cpu:             495.4 elap:              10.7
 (Enter /s/ls4/users/knvvv/bin/g16sse/l303.exe)
 DipDrv:  MaxL=1.
 Leave Link  303 at Sat Apr 17 19:26:34 2021, MaxMem=   104857600 cpu:              75.0 elap:               1.6
 (Enter /s/ls4/users/knvvv/bin/g16sse/l401.exe)
 SCF N**3 symmetry information disabled.
 ExpMin= 4.36D-02 ExpMax= 1.17D+05 ExpMxC= 1.13D+03 IAcc=3 IRadAn=         5 AccDes= 0.00D+00
 Harris functional with IExCor= 1009 and IRadAn=       5 diagonalized for initial guess.
 HarFok:  IExCor= 1009 AccDes= 0.00D+00 IRadAn=         5 IDoV= 1 UseB2=F ITyADJ=14
 ICtDFT=  3500011 ScaDFX=  1.000000  1.000000  1.000000  1.000000
 FoFCou: FMM=F IPFlag=           0 FMFlag=      100000 FMFlg1=           0
         NFxFlg=           0 DoJE=T BraDBF=F KetDBF=T FulRan=T
         wScrn=  0.000000 ICntrl=       500 IOpCl=  0 I1Cent=   200000004 NGrid=           0
         NMat0=    1 NMatS0=      1 NMatT0=    0 NMatD0=    1 NMtDS0=    0 NMtDT0=    0
 Petite list used in FoFCou.
 CoulSu:  requested number of processors reduced to:  20 ShMem   1 Linda.
 CoulSu:  requested number of processors reduced to:  20 ShMem   1 Linda.
 CoulSu:  requested number of processors reduced to:  21 ShMem   1 Linda.
 CoulSu:  requested number of processors reduced to:  21 ShMem   1 Linda.
 Harris En= -153.729332342735    
 JPrj=0 DoOrth=F DoCkMO=F.
 Initial guess orbital symmetries:
       Occupied  (A1) (A1) (B2) (A1) (A1) (B2) (B1) (A1) (B2) (A2)
                 (A1) (B1)
       Virtual   (B2) (A1) (A1) (B2) (B1) (A1) (A2) (B2) (A1) (B1)
                 (B2) (A1) (B1) (B2) (A1) (A1) (A2) (B1) (B2) (A1)
                 (B1) (A1) (B2) (B2) (B1) (A2) (A1) (A2) (A2) (B2)
                 (A1) (B1) (B2) (A1) (B2) (A1) (B1) (A1) (B2) (A2)
                 (B1) (B2) (A2) (A1) (A1) (B1) (B2) (A2) (A1) (B1)
                 (B2) (A1) (B2) (A1) (B1) (A2) (B1) (A1) (B2) (A2)
                 (A1) (B1) (B2) (A2) (B2) (A1) (B2) (A1) (B1) (A1)
                 (B1) (A2) (A1) (B2) (B2) (A1) (B1) (B2) (A1) (A2)
                 (B2) (A1) (A2) (B1) (A2) (A1) (B1) (B2) (B2) (A1)
                 (A2) (A1) (B1) (A1) (B2) (B1) (A1) (A2) (B1) (A2)
                 (B1) (B2) (B1) (A1) (B2) (B2) (A1) (A2) (A2) (B1)
                 (B2) (A1) (A1) (A2) (B2) (B1) (B1) (A1) (A1) (B2)
                 (B2) (A1) (A2) (B2) (A2) (A1) (B2) (A1) (B1) (B2)
                 (A2) (B1) (A1) (B2) (B1) (A1) (A2) (A1) (B2) (B2)
                 (B1) (A1) (A2) (B1) (A2) (A1) (B2) (B2) (A1) (B1)
                 (A2) (B1) (A2) (B2) (A1) (A1) (B2) (A1) (B1) (B2)
                 (B1) (A1) (A2) (A2) (B2) (A1) (B1) (A2) (B2) (A1)
                 (B1) (A1) (B1) (A1) (B2) (B1) (B2) (B2) (A2) (A1)
                 (B1) (A1) (A1) (A2) (B1) (B2) (A2) (B1) (A2) (B1)
                 (B2) (A2) (A1) (B1) (A2) (B2) (A1) (B1) (A1) (B2)
                 (B1) (B2) (A2) (A1) (A1) (A1) (A2) (B2) (B2) (A2)
                 (B1) (B2) (A1) (B1) (A1) (B2) (A2) (B2) (A1) (B1)
                 (A2) (B2) (A1) (A1) (B2) (A1) (B2) (B1) (A2) (A2)
                 (A1) (B1) (B2) (A1) (B2) (B1) (A2) (B2) (A2) (B2)
                 (A1) (B1) (B2) (A1) (B1) (B2) (A2) (B1) (B2) (A1)
                 (A1) (A1) (A2) (B2) (A2) (B1) (B1) (A1) (A2) (B1)
                 (B2) (A2) (A1) (A2) (A1) (B2) (B1) (A1) (B2) (B2)
                 (A2) (B1) (A1) (A2) (B1) (A1) (B2) (B1) (A2) (B2)
                 (A1) (A1) (A2) (B2) (B1) (A2) (B2) (B1) (B2) (B1)
                 (A1) (B1) (A2) (A1) (A2) (A1) (A2) (B2) (B1) (A1)
                 (B2) (A1) (B2) (A1) (A1) (B2) (A1) (A1) (B2) (A1)
 The electronic state of the initial guess is 1-A1.
 Leave Link  401 at Sat Apr 17 19:26:40 2021, MaxMem=   104857600 cpu:             241.9 elap:               5.4
 (Enter /s/ls4/users/knvvv/bin/g16sse/l502.exe)
 Integral symmetry usage will be decided dynamically.
 Closed shell SCF:
 Using DIIS extrapolation, IDIIS=  1040.
 NGot=   104857600 LenX=   104525835 LenY=   104371730
 Requested convergence on RMS density matrix=1.00D-08 within 128 cycles.
 Requested convergence on MAX density matrix=1.00D-06.
 Requested convergence on             energy=1.00D-06.
 No special actions if energy rises.
 Fock matrices will be formed incrementally for  20 cycles.

 Cycle   1  Pass 1  IDiag  1:
 FoFJK:  IHMeth= 1 ICntrl=       0 DoSepK=F KAlg= 0 I1Cent=           0 FoldK=F
 IRaf= 990000000 NMat=       1 IRICut=       1 DoRegI=T DoRafI=F ISym2E= 1 IDoP0=0 IntGTp=1.
 FoFCou: FMM=F IPFlag=           0 FMFlag=      100000 FMFlg1=           0
         NFxFlg=           0 DoJE=F BraDBF=F KetDBF=F FulRan=T
         wScrn=  0.000000 ICntrl=         0 IOpCl=  0 I1Cent=           0 NGrid=           0
         NMat0=    1 NMatS0=      1 NMatT0=    0 NMatD0=    1 NMtDS0=    0 NMtDT0=    0
 Petite list used in FoFCou.
 CoulSu:  requested number of processors reduced to:  21 ShMem   1 Linda.
 E= -153.732364421710    
 DIIS: error= 2.47D-02 at cycle   1 NSaved=   1.
 NSaved= 1 IEnMin= 1 EnMin= -153.732364421710     IErMin= 1 ErrMin= 2.47D-02
 ErrMax= 2.47D-02  0.00D+00 EMaxC= 1.00D-01 BMatC= 1.38D-01 BMatP= 1.38D-01
 IDIUse=3 WtCom= 7.53D-01 WtEn= 2.47D-01
 Coeff-Com:  0.100D+01
 Coeff-En:   0.100D+01
 Coeff:      0.100D+01
 Gap=     0.483 Goal=   None    Shift=    0.000
 GapD=    0.483 DampG=2.000 DampE=0.500 DampFc=1.0000 IDamp=-1.
 RMSDP=1.31D-03 MaxDP=3.91D-02              OVMax= 1.01D-01

 Cycle   2  Pass 1  IDiag  1:
 RMSU=  1.27D-03    CP:  9.34D-01
 CoulSu:  requested number of processors reduced to:  21 ShMem   1 Linda.
 E= -153.759246139863     Delta-E=       -0.026881718154 Rises=F Damp=F
 DIIS: error= 1.60D-02 at cycle   2 NSaved=   2.
 NSaved= 2 IEnMin= 2 EnMin= -153.759246139863     IErMin= 2 ErrMin= 1.60D-02
 ErrMax= 1.60D-02  0.00D+00 EMaxC= 1.00D-01 BMatC= 4.81D-02 BMatP= 1.38D-01
 IDIUse=3 WtCom= 8.40D-01 WtEn= 1.60D-01
 Coeff-Com:  0.341D+00 0.659D+00
 Coeff-En:   0.334D+00 0.666D+00
 Coeff:      0.340D+00 0.660D+00
 Gap=     0.399 Goal=   None    Shift=    0.000
 RMSDP=8.59D-04 MaxDP=3.40D-02 DE=-2.69D-02 OVMax= 6.49D-02

 Cycle   3  Pass 1  IDiag  1:
 RMSU=  8.53D-04    CP:  9.23D-01  9.31D-01
 CoulSu:  requested number of processors reduced to:  21 ShMem   1 Linda.
 E= -153.793360124045     Delta-E=       -0.034113984181 Rises=F Damp=F
 DIIS: error= 6.60D-03 at cycle   3 NSaved=   3.
 NSaved= 3 IEnMin= 3 EnMin= -153.793360124045     IErMin= 3 ErrMin= 6.60D-03
 ErrMax= 6.60D-03  0.00D+00 EMaxC= 1.00D-01 BMatC= 6.76D-03 BMatP= 4.81D-02
 IDIUse=3 WtCom= 9.34D-01 WtEn= 6.60D-02
 Coeff-Com:  0.387D-01 0.277D+00 0.685D+00
 Coeff-En:   0.000D+00 0.000D+00 0.100D+01
 Coeff:      0.361D-01 0.258D+00 0.705D+00
 Gap=     0.364 Goal=   None    Shift=    0.000
 RMSDP=3.20D-04 MaxDP=1.42D-02 DE=-3.41D-02 OVMax= 2.35D-02

 Cycle   4  Pass 1  IDiag  1:
 RMSU=  2.23D-04    CP:  9.34D-01  1.05D+00  8.06D-01
 CoulSu:  requested number of processors reduced to:  21 ShMem   1 Linda.
 E= -153.797339098935     Delta-E=       -0.003978974891 Rises=F Damp=F
 DIIS: error= 2.60D-03 at cycle   4 NSaved=   4.
 NSaved= 4 IEnMin= 4 EnMin= -153.797339098935     IErMin= 4 ErrMin= 2.60D-03
 ErrMax= 2.60D-03  0.00D+00 EMaxC= 1.00D-01 BMatC= 1.10D-03 BMatP= 6.76D-03
 IDIUse=3 WtCom= 9.74D-01 WtEn= 2.60D-02
 Coeff-Com:  0.315D-02 0.108D+00 0.387D+00 0.502D+00
 Coeff-En:   0.000D+00 0.000D+00 0.485D-01 0.952D+00
 Coeff:      0.307D-02 0.105D+00 0.378D+00 0.514D+00
 Gap=     0.370 Goal=   None    Shift=    0.000
 RMSDP=6.55D-05 MaxDP=2.36D-03 DE=-3.98D-03 OVMax= 8.86D-03

 Cycle   5  Pass 1  IDiag  1:
 RMSU=  3.47D-05    CP:  9.30D-01  1.04D+00  8.46D-01  8.23D-01
 CoulSu:  requested number of processors reduced to:  21 ShMem   1 Linda.
 E= -153.798094915011     Delta-E=       -0.000755816076 Rises=F Damp=F
 DIIS: error= 3.35D-04 at cycle   5 NSaved=   5.
 NSaved= 5 IEnMin= 5 EnMin= -153.798094915011     IErMin= 5 ErrMin= 3.35D-04
 ErrMax= 3.35D-04  0.00D+00 EMaxC= 1.00D-01 BMatC= 2.20D-05 BMatP= 1.10D-03
 IDIUse=3 WtCom= 9.97D-01 WtEn= 3.35D-03
 Coeff-Com: -0.198D-02 0.127D-01 0.637D-01 0.173D+00 0.752D+00
 Coeff-En:   0.000D+00 0.000D+00 0.000D+00 0.000D+00 0.100D+01
 Coeff:     -0.197D-02 0.127D-01 0.635D-01 0.173D+00 0.753D+00
 Gap=     0.369 Goal=   None    Shift=    0.000
 RMSDP=1.82D-05 MaxDP=8.00D-04 DE=-7.56D-04 OVMax= 9.60D-04

 Cycle   6  Pass 1  IDiag  1:
 RMSU=  8.14D-06    CP:  9.31D-01  1.05D+00  8.42D-01  8.81D-01  9.78D-01
 CoulSu:  requested number of processors reduced to:  21 ShMem   1 Linda.
 E= -153.798109071881     Delta-E=       -0.000014156870 Rises=F Damp=F
 DIIS: error= 2.70D-05 at cycle   6 NSaved=   6.
 NSaved= 6 IEnMin= 6 EnMin= -153.798109071881     IErMin= 6 ErrMin= 2.70D-05
 ErrMax= 2.70D-05  0.00D+00 EMaxC= 1.00D-01 BMatC= 1.00D-07 BMatP= 2.20D-05
 IDIUse=1 WtCom= 1.00D+00 WtEn= 0.00D+00
 Coeff-Com: -0.150D-03-0.369D-02-0.120D-01-0.878D-02-0.153D-02 0.103D+01
 Coeff:     -0.150D-03-0.369D-02-0.120D-01-0.878D-02-0.153D-02 0.103D+01
 Gap=     0.369 Goal=   None    Shift=    0.000
 RMSDP=3.53D-06 MaxDP=1.49D-04 DE=-1.42D-05 OVMax= 1.41D-04

 Cycle   7  Pass 1  IDiag  1:
 RMSU=  1.39D-06    CP:  9.31D-01  1.05D+00  8.41D-01  8.92D-01  9.88D-01
                    CP:  1.15D+00
 CoulSu:  requested number of processors reduced to:  21 ShMem   1 Linda.
 E= -153.798109169848     Delta-E=       -0.000000097967 Rises=F Damp=F
 DIIS: error= 4.07D-06 at cycle   7 NSaved=   7.
 NSaved= 7 IEnMin= 7 EnMin= -153.798109169848     IErMin= 7 ErrMin= 4.07D-06
 ErrMax= 4.07D-06  0.00D+00 EMaxC= 1.00D-01 BMatC= 1.43D-09 BMatP= 1.00D-07
 IDIUse=1 WtCom= 1.00D+00 WtEn= 0.00D+00
 Coeff-Com:  0.404D-04-0.447D-04-0.123D-03-0.148D-02-0.861D-02-0.319D-01
 Coeff-Com:  0.104D+01
 Coeff:      0.404D-04-0.447D-04-0.123D-03-0.148D-02-0.861D-02-0.319D-01
 Coeff:      0.104D+01
 Gap=     0.369 Goal=   None    Shift=    0.000
 RMSDP=6.13D-07 MaxDP=1.97D-05 DE=-9.80D-08 OVMax= 2.29D-05

 Cycle   8  Pass 1  IDiag  1:
 RMSU=  4.15D-07    CP:  9.31D-01  1.05D+00  8.41D-01  8.92D-01  9.82D-01
                    CP:  1.16D+00  1.17D+00
 CoulSu:  requested number of processors reduced to:  21 ShMem   1 Linda.
 E= -153.798109172120     Delta-E=       -0.000000002272 Rises=F Damp=F
 DIIS: error= 8.53D-07 at cycle   8 NSaved=   8.
 NSaved= 8 IEnMin= 8 EnMin= -153.798109172120     IErMin= 8 ErrMin= 8.53D-07
 ErrMax= 8.53D-07  0.00D+00 EMaxC= 1.00D-01 BMatC= 7.66D-11 BMatP= 1.43D-09
 IDIUse=1 WtCom= 1.00D+00 WtEn= 0.00D+00
 Coeff-Com:  0.674D-05 0.980D-04 0.284D-03 0.157D-03-0.803D-03-0.316D-01
 Coeff-Com:  0.571D-01 0.975D+00
 Coeff:      0.674D-05 0.980D-04 0.284D-03 0.157D-03-0.803D-03-0.316D-01
 Coeff:      0.571D-01 0.975D+00
 Gap=     0.369 Goal=   None    Shift=    0.000
 RMSDP=9.08D-08 MaxDP=3.93D-06 DE=-2.27D-09 OVMax= 6.21D-06

 Cycle   9  Pass 1  IDiag  1:
 RMSU=  4.21D-08    CP:  9.31D-01  1.05D+00  8.41D-01  8.92D-01  9.81D-01
                    CP:  1.16D+00  1.18D+00  1.15D+00
 CoulSu:  requested number of processors reduced to:  21 ShMem   1 Linda.
 E= -153.798109172237     Delta-E=       -0.000000000117 Rises=F Damp=F
 DIIS: error= 1.76D-07 at cycle   9 NSaved=   9.
 NSaved= 9 IEnMin= 9 EnMin= -153.798109172237     IErMin= 9 ErrMin= 1.76D-07
 ErrMax= 1.76D-07  0.00D+00 EMaxC= 1.00D-01 BMatC= 3.26D-12 BMatP= 7.66D-11
 IDIUse=1 WtCom= 1.00D+00 WtEn= 0.00D+00
 Coeff-Com: -0.139D-05 0.545D-05 0.101D-04 0.315D-04 0.206D-03-0.382D-03
 Coeff-Com: -0.410D-01 0.912D-01 0.950D+00
 Coeff:     -0.139D-05 0.545D-05 0.101D-04 0.315D-04 0.206D-03-0.382D-03
 Coeff:     -0.410D-01 0.912D-01 0.950D+00
 Gap=     0.369 Goal=   None    Shift=    0.000
 RMSDP=2.17D-08 MaxDP=1.10D-06 DE=-1.17D-10 OVMax= 1.37D-06

 Cycle  10  Pass 1  IDiag  1:
 RMSU=  8.82D-09    CP:  9.31D-01  1.05D+00  8.41D-01  8.92D-01  9.81D-01
                    CP:  1.16D+00  1.17D+00  1.17D+00  1.31D+00
 CoulSu:  requested number of processors reduced to:  21 ShMem   1 Linda.
 E= -153.798109172247     Delta-E=       -0.000000000010 Rises=F Damp=F
 DIIS: error= 3.85D-08 at cycle  10 NSaved=  10.
 NSaved=10 IEnMin=10 EnMin= -153.798109172247     IErMin=10 ErrMin= 3.85D-08
 ErrMax= 3.85D-08  0.00D+00 EMaxC= 1.00D-01 BMatC= 1.06D-13 BMatP= 3.26D-12
 IDIUse=1 WtCom= 1.00D+00 WtEn= 0.00D+00
 Coeff-Com:  0.741D-07-0.236D-05-0.489D-05-0.931D-05-0.899D-05 0.841D-03
 Coeff-Com:  0.287D-02-0.416D-01-0.125D+00 0.116D+01
 Coeff:      0.741D-07-0.236D-05-0.489D-05-0.931D-05-0.899D-05 0.841D-03
 Coeff:      0.287D-02-0.416D-01-0.125D+00 0.116D+01
 Gap=     0.369 Goal=   None    Shift=    0.000
 RMSDP=5.32D-09 MaxDP=3.07D-07 DE=-1.02D-11 OVMax= 3.71D-07

 SCF Done:  E(RM062X) =  -153.798109172     A.U. after   10 cycles
            NFock= 10  Conv=0.53D-08     -V/T= 2.0042
 KE= 1.531584080188D+02 PE=-5.103756201808D+02 EE= 1.281025392328D+02
 Leave Link  502 at Sat Apr 17 19:29:02 2021, MaxMem=   104857600 cpu:            6361.8 elap:             142.0
 (Enter /s/ls4/users/knvvv/bin/g16sse/l601.exe)
 Copying SCF densities to generalized density rwf, IOpCl= 0 IROHF=0.

 **********************************************************************

            Population analysis using the SCF density.

 **********************************************************************

 Orbital symmetries:
       Occupied  (A1) (A1) (B2) (A1) (A1) (B2) (B1) (A1) (B2) (A2)
                 (A1) (B1)
       Virtual   (A1) (B2) (A1) (B1) (B2) (A1) (A2) (B1) (A1) (B2)
                 (B2) (A1) (B1) (A1) (B2) (A2) (B1) (A1) (A1) (B2)
                 (B1) (A1) (B2) (A2) (A1) (A2) (B2) (B2) (B1) (B1)
                 (A1) (B2) (A1) (A2) (B1) (B2) (A1) (A1) (A2) (B2)
                 (B2) (B1) (A2) (A1) (B1) (A1) (B2) (A2) (A1) (B1)
                 (B2) (B2) (A1) (B1) (A1) (B1) (A2) (A1) (A2) (B2)
                 (A1) (B1) (B2) (A2) (B2) (A1) (B2) (B1) (A1) (A1)
                 (B2) (A1) (B1) (A2) (B2) (A1) (B1) (B2) (A1) (B2)
                 (A2) (A2) (B1) (A1) (A2) (B1) (A1) (B2) (B2) (A1)
                 (A2) (A1) (B1) (A1) (B1) (B2) (A2) (A1) (B1) (A2)
                 (B2) (B1) (B1) (A1) (B2) (B2) (A2) (A1) (A2) (B1)
                 (B2) (A1) (A1) (A2) (B2) (B1) (B1) (A1) (B2) (A1)
                 (B2) (A1) (A2) (B2) (A1) (A2) (B2) (A1) (B1) (A2)
                 (B2) (B1) (A1) (B2) (B1) (A1) (A2) (B2) (A1) (B2)
                 (B1) (A1) (A2) (B1) (A2) (B2) (A1) (B2) (A1) (B1)
                 (A2) (B1) (B2) (A1) (B2) (A2) (A1) (A1) (B1) (B2)
                 (B1) (A2) (A2) (A1) (B2) (A1) (B1) (A2) (B2) (A1)
                 (B1) (A1) (B1) (A1) (B2) (B1) (B2) (A2) (B2) (B1)
                 (A1) (A1) (A1) (B1) (A2) (A2) (B2) (B1) (B2) (B1)
                 (A2) (A2) (A1) (B1) (B2) (A2) (A1) (B1) (B2) (A1)
                 (B1) (B2) (A2) (A1) (A1) (A2) (A1) (B2) (B2) (A2)
                 (A1) (B2) (B1) (B1) (A1) (B2) (A2) (B1) (A1) (B2)
                 (A2) (B2) (A1) (A1) (B2) (A1) (B2) (A2) (B1) (A2)
                 (B1) (A1) (B2) (A1) (B2) (B1) (A2) (B2) (A2) (A1)
                 (B1) (B2) (B2) (A1) (B1) (B2) (A2) (A1) (B1) (B2)
                 (A1) (A2) (B2) (B1) (A2) (B1) (A1) (A2) (A1) (B1)
                 (B2) (A2) (A1) (A2) (A1) (B2) (B1) (A1) (B2) (A2)
                 (B2) (B1) (A1) (A2) (B1) (A1) (B2) (B1) (A2) (B2)
                 (A1) (A1) (A2) (B2) (B1) (A2) (B2) (B1) (B2) (B1)
                 (A1) (B1) (A2) (A1) (A2) (A1) (B2) (A2) (B1) (A1)
                 (B2) (A1) (B2) (A1) (A1) (B2) (A1) (A1) (B2) (A1)
 The electronic state is 1-A1.
 Alpha  occ. eigenvalues --  -19.64442 -10.59581 -10.59530  -1.19642  -0.77758
 Alpha  occ. eigenvalues --   -0.72627  -0.59889  -0.55982  -0.46836  -0.45386
 Alpha  occ. eigenvalues --   -0.38225  -0.35748
 Alpha virt. eigenvalues --    0.01187   0.02815   0.04292   0.04538   0.07511
 Alpha virt. eigenvalues --    0.08740   0.11294   0.11517   0.11849   0.13182
 Alpha virt. eigenvalues --    0.16642   0.16883   0.16973   0.19874   0.20246
 Alpha virt. eigenvalues --    0.21063   0.21678   0.22705   0.23997   0.24710
 Alpha virt. eigenvalues --    0.25875   0.26889   0.27743   0.28994   0.29101
 Alpha virt. eigenvalues --    0.30730   0.31151   0.31585   0.31797   0.32182
 Alpha virt. eigenvalues --    0.34213   0.35606   0.35627   0.35829   0.38536
 Alpha virt. eigenvalues --    0.39399   0.42121   0.43653   0.43700   0.44078
 Alpha virt. eigenvalues --    0.47761   0.48940   0.53758   0.54823   0.55326
 Alpha virt. eigenvalues --    0.56632   0.59678   0.60845   0.63517   0.64013
 Alpha virt. eigenvalues --    0.64079   0.68298   0.69822   0.71705   0.72485
 Alpha virt. eigenvalues --    0.77316   0.77554   0.78874   0.82990   0.84838
 Alpha virt. eigenvalues --    0.85529   0.86995   0.90294   0.92347   0.94036
 Alpha virt. eigenvalues --    0.95092   0.98801   1.01646   1.02176   1.05752
 Alpha virt. eigenvalues --    1.09138   1.09587   1.09877   1.10199   1.23276
 Alpha virt. eigenvalues --    1.26149   1.29404   1.30044   1.31764   1.32980
 Alpha virt. eigenvalues --    1.33633   1.41680   1.42091   1.45313   1.47839
 Alpha virt. eigenvalues --    1.61115   1.61398   1.66725   1.71355   1.71521
 Alpha virt. eigenvalues --    1.76741   1.80579   1.84072   1.87436   1.90042
 Alpha virt. eigenvalues --    1.92959   1.94779   1.94865   1.98568   2.02329
 Alpha virt. eigenvalues --    2.03935   2.04157   2.07366   2.09593   2.14039
 Alpha virt. eigenvalues --    2.14952   2.16702   2.18229   2.19475   2.22718
 Alpha virt. eigenvalues --    2.29741   2.29913   2.38169   2.40743   2.43825
 Alpha virt. eigenvalues --    2.44962   2.46453   2.48051   2.54334   2.55382
 Alpha virt. eigenvalues --    2.67115   2.67567   2.69190   2.70261   2.73076
 Alpha virt. eigenvalues --    2.73547   2.75758   2.77552   2.79945   2.83426
 Alpha virt. eigenvalues --    2.83611   2.89638   2.92626   2.94941   2.96994
 Alpha virt. eigenvalues --    3.05922   3.11213   3.13260   3.16985   3.23794
 Alpha virt. eigenvalues --    3.25049   3.27812   3.30474   3.35706   3.44998
 Alpha virt. eigenvalues --    3.49769   3.49876   3.60993   3.64307   3.64675
 Alpha virt. eigenvalues --    3.76706   3.83578   3.87112   3.92122   3.92438
 Alpha virt. eigenvalues --    3.92606   3.93375   4.02772   4.04960   4.05737
 Alpha virt. eigenvalues --    4.17869   4.25467   4.26999   4.29205   4.43031
 Alpha virt. eigenvalues --    4.55184   4.61654   4.66482   4.76911   4.90682
 Alpha virt. eigenvalues --    5.05610   5.07186   5.10258   5.15363   5.27829
 Alpha virt. eigenvalues --    5.32717   5.35279   5.44421   5.47301   5.47471
 Alpha virt. eigenvalues --    5.48739   5.51020   5.62785   5.63747   5.64460
 Alpha virt. eigenvalues --    5.74063   5.75837   5.80635   5.82789   5.83964
 Alpha virt. eigenvalues --    5.85495   5.88652   5.96421   5.97993   5.99793
 Alpha virt. eigenvalues --    6.01017   6.01675   6.06933   6.08476   6.08816
 Alpha virt. eigenvalues --    6.16039   6.18474   6.20517   6.23360   6.25107
 Alpha virt. eigenvalues --    6.28797   6.32794   6.33906   6.45141   6.49991
 Alpha virt. eigenvalues --    6.51373   6.52272   6.53756   6.68608   6.74419
 Alpha virt. eigenvalues --    6.77726   6.83795   6.98704   7.01338   7.02417
 Alpha virt. eigenvalues --    7.06049   7.12412   7.16800   7.18614   7.26591
 Alpha virt. eigenvalues --    7.35226   7.37421   7.40909   7.42055   7.43106
 Alpha virt. eigenvalues --    7.45874   7.47470   7.54286   7.55763   7.57316
 Alpha virt. eigenvalues --    7.59186   7.63619   7.65494   7.79514   7.92457
 Alpha virt. eigenvalues --    7.95776   7.96286   8.03047   8.03843   8.04975
 Alpha virt. eigenvalues --    8.07168   8.07923   8.15338   8.16919   8.18800
 Alpha virt. eigenvalues --    8.23989   8.25258   8.26004   8.28771   8.29195
 Alpha virt. eigenvalues --    8.35082   8.35746   8.49467   8.49629   8.74015
 Alpha virt. eigenvalues --    8.75973   8.81725   8.81741   8.97325   9.02559
 Alpha virt. eigenvalues --    9.04438   9.28700   9.29774   9.38989   9.41086
 Alpha virt. eigenvalues --    9.43406   9.45654   9.53361   9.59256   9.66202
 Alpha virt. eigenvalues --    9.70861   9.79801   9.82227   9.83324   9.98821
 Alpha virt. eigenvalues --   10.06124  10.07506  10.11634  10.19041  10.35729
 Alpha virt. eigenvalues --   10.66463  10.75609  11.17068  11.23939  11.43545
 Alpha virt. eigenvalues --   11.56124  11.79258  11.89047  12.03420  12.09137
 Alpha virt. eigenvalues --   12.33206  12.45672  12.48695  12.59867  12.83699
 Alpha virt. eigenvalues --   13.10335  13.14364  13.46789  14.17225  28.71164
 Alpha virt. eigenvalues --   28.94401  48.20863 146.17683 146.37217 251.28765
          Condensed to atoms (all electrons):
               1          2          3          4          5          6
     1  O    8.163456   0.189124   0.189124  -0.060778  -0.060778  -0.060778
     2  C    0.189124   5.350145   0.171404   0.362128   0.362128  -0.054113
     3  C    0.189124   0.171404   5.350145  -0.054113  -0.054113   0.362128
     4  H   -0.060778   0.362128  -0.054113   0.647400  -0.159649   0.075271
     5  H   -0.060778   0.362128  -0.054113  -0.159649   0.647400  -0.048259
     6  H   -0.060778  -0.054113   0.362128   0.075271  -0.048259   0.647400
     7  H   -0.060778  -0.054113   0.362128  -0.048259   0.075271  -0.159649
               7
     1  O   -0.060778
     2  C   -0.054113
     3  C    0.362128
     4  H   -0.048259
     5  H    0.075271
     6  H   -0.159649
     7  H    0.647400
 Mulliken charges:
               1
     1  O   -0.298593
     2  C   -0.326704
     3  C   -0.326704
     4  H    0.238000
     5  H    0.238000
     6  H    0.238000
     7  H    0.238000
 Sum of Mulliken charges =   0.00000
 Mulliken charges with hydrogens summed into heavy atoms:
               1
     1  O   -0.298593
     2  C    0.149296
     3  C    0.149296
 Electronic spatial extent (au):  <R**2>=            130.3987
 Charge=              0.0000 electrons
 Dipole moment (field-independent basis, Debye):
    X=              0.0000    Y=             -0.0000    Z=             -1.9647  Tot=              1.9647
 Quadrupole moment (field-independent basis, Debye-Ang):
   XX=            -17.3710   YY=            -16.4521   ZZ=            -21.0133
   XY=              0.0000   XZ=              0.0000   YZ=             -0.0000
 Traceless Quadrupole moment (field-independent basis, Debye-Ang):
   XX=              0.9078   YY=              1.8267   ZZ=             -2.7345
   XY=              0.0000   XZ=              0.0000   YZ=             -0.0000
 Octapole moment (field-independent basis, Debye-Ang**2):
  XXX=             -0.0000  YYY=              0.0000  ZZZ=              2.0384  XYY=              0.0000
  XXY=              0.0000  XXZ=             -0.2773  XZZ=              0.0000  YZZ=             -0.0000
  YYZ=             -0.0964  XYZ=              0.0000
 Hexadecapole moment (field-independent basis, Debye-Ang**3):
 XXXX=            -30.4039 YYYY=            -77.6265 ZZZZ=            -60.6977 XXXY=             -0.0000
 XXXZ=             -0.0000 YYYX=             -0.0000 YYYZ=              0.0000 ZZZX=              0.0000
 ZZZY=              0.0000 XXYY=            -15.2173 XXZZ=            -15.5184 YYZZ=            -21.9859
 XXYZ=             -0.0000 YYXZ=             -0.0000 ZZXY=              0.0000
 N-N= 7.531656375697D+01 E-N=-5.103756210702D+02  KE= 1.531584080188D+02
 PrsmSu:  requested number of processors reduced to:  21 ShMem   1 Linda.
 No NMR shielding tensors so no spin-rotation constants.
 Leave Link  601 at Sat Apr 17 19:29:07 2021, MaxMem=   104857600 cpu:             223.4 elap:               4.9
 (Enter /s/ls4/users/knvvv/bin/g16sse/l801.exe)
 DoSCS=F DFT=T ScalE2(SS,OS)=  1.000000  1.000000
 Range of M.O.s used for correlation:     1   322
 NBasis=   324 NAE=    12 NBE=    12 NFC=     0 NFV=     0
 NROrb=    322 NOA=    12 NOB=    12 NVA=   310 NVB=   310

 **** Warning!!: The largest alpha MO coefficient is  0.80324439D+02

 Leave Link  801 at Sat Apr 17 19:29:07 2021, MaxMem=   104857600 cpu:               3.8 elap:               0.1
 (Enter /s/ls4/users/knvvv/bin/g16sse/l914.exe)
 RHF ground state
 Doing stability rather than CIS.
 Two-electron integrals replicated using symmetry.
 MDV=   104857600 DFT=T DoStab=T Mixed=T DoRPA=F DoScal=F NonHer=F
 Making orbital integer symmetry assigments:
 Orbital symmetries:
       Occupied  (A1) (A1) (B2) (A1) (A1) (B2) (B1) (A1) (B2) (A2)
                 (A1) (B1)
       Virtual   (A1) (B2) (A1) (B1) (B2) (A1) (A2) (B1) (A1) (B2)
                 (B2) (A1) (B1) (A1) (B2) (A2) (B1) (A1) (A1) (B2)
                 (B1) (A1) (B2) (A2) (A1) (A2) (B2) (B2) (B1) (B1)
                 (A1) (B2) (A1) (A2) (B1) (B2) (A1) (A1) (A2) (B2)
                 (B2) (B1) (A2) (A1) (B1) (A1) (B2) (A2) (A1) (B1)
                 (B2) (B2) (A1) (B1) (A1) (B1) (A2) (A1) (A2) (B2)
                 (A1) (B1) (B2) (A2) (B2) (A1) (B2) (B1) (A1) (A1)
                 (B2) (A1) (B1) (A2) (B2) (A1) (B1) (B2) (A1) (B2)
                 (A2) (A2) (B1) (A1) (A2) (B1) (A1) (B2) (B2) (A1)
                 (A2) (A1) (B1) (A1) (B1) (B2) (A2) (A1) (B1) (A2)
                 (B2) (B1) (B1) (A1) (B2) (B2) (A2) (A1) (A2) (B1)
                 (B2) (A1) (A1) (A2) (B2) (B1) (B1) (A1) (B2) (A1)
                 (B2) (A1) (A2) (B2) (A1) (A2) (B2) (A1) (B1) (A2)
                 (B2) (B1) (A1) (B2) (B1) (A1) (A2) (B2) (A1) (B2)
                 (B1) (A1) (A2) (B1) (A2) (B2) (A1) (B2) (A1) (B1)
                 (A2) (B1) (B2) (A1) (B2) (A2) (A1) (A1) (B1) (B2)
                 (B1) (A2) (A2) (A1) (B2) (A1) (B1) (A2) (B2) (A1)
                 (B1) (A1) (B1) (A1) (B2) (B1) (B2) (A2) (B2) (B1)
                 (A1) (A1) (A1) (B1) (A2) (A2) (B2) (B1) (B2) (B1)
                 (A2) (A2) (A1) (B1) (B2) (A2) (A1) (B1) (B2) (A1)
                 (B1) (B2) (A2) (A1) (A1) (A2) (A1) (B2) (B2) (A2)
                 (A1) (B2) (B1) (B1) (A1) (B2) (A2) (B1) (A1) (B2)
                 (A2) (B2) (A1) (A1) (B2) (A1) (B2) (A2) (B1) (A2)
                 (B1) (A1) (B2) (A1) (B2) (B1) (A2) (B2) (A2) (A1)
                 (B1) (B2) (B2) (A1) (B1) (B2) (A2) (A1) (B1) (B2)
                 (A1) (A2) (B2) (B1) (A2) (B1) (A1) (A2) (A1) (B1)
                 (B2) (A2) (A1) (A2) (A1) (B2) (B1) (A1) (B2) (A2)
                 (B2) (B1) (A1) (A2) (B1) (A1) (B2) (B1) (A2) (B2)
                 (A1) (A1) (A2) (B2) (B1) (A2) (B2) (B1) (B2) (B1)
                 (A1) (B1) (A2) (A1) (A2) (A1) (B2) (A2) (B1) (A1)
                 (B2) (A1) (B2) (A1) (A1) (B2) (A1) (A1) (B2) (A1)
    24 initial guesses have been made.
 Convergence on wavefunction:    0.001000000000000
 Davidson Disk Diagonalization:  ConvIn= 1.00D-03 SkipCon=T Conv= 1.00D-03.
 Max sub-space:  2000 roots to seek:    24 dimension of matrix:         7440
 Iteration     1 Dimension    24 NMult     0 NNew     24
 Estimated number of processors is:   18
 CISAX will form     1 AO SS matrices at one time.
 NMat=     1 NSing=     1 JSym2X= 2.
 FoFJK:  IHMeth= 1 ICntrl=       0 DoSepK=F KAlg= 0 I1Cent=           0 FoldK=F
 IRaf= 990000000 NMat=       1 IRICut=       1 DoRegI=T DoRafI=F ISym2E= 2 IDoP0=0 IntGTp=1.
 FoFCou: FMM=F IPFlag=           0 FMFlag=      100000 FMFlg1=           0
         NFxFlg=           0 DoJE=F BraDBF=F KetDBF=F FulRan=T
         wScrn=  0.000000 ICntrl=         0 IOpCl=  0 I1Cent=           0 NGrid=           0
         NMat0=    1 NMatS0=      1 NMatT0=    0 NMatD0=    1 NMtDS0=    0 NMtDT0=    0
 Integrals replicated using symmetry in FoFCou.
 CoulSu:  requested number of processors reduced to:  17 ShMem   1 Linda.
 NMat=     1 NSing=     1 JSym2X= 2.
 CoulSu:  requested number of processors reduced to:  17 ShMem   1 Linda.
 NMat=     1 NSing=     1 JSym2X= 2.
 CoulSu:  requested number of processors reduced to:  17 ShMem   1 Linda.
 NMat=     1 NSing=     1 JSym2X= 2.
 CoulSu:  requested number of processors reduced to:  17 ShMem   1 Linda.
 NMat=     1 NSing=     1 JSym2X= 2.
 CoulSu:  requested number of processors reduced to:  17 ShMem   1 Linda.
 NMat=     1 NSing=     1 JSym2X= 2.
 CoulSu:  requested number of processors reduced to:  17 ShMem   1 Linda.
 NMat=     1 NSing=     1 JSym2X= 2.
 CoulSu:  requested number of processors reduced to:  17 ShMem   1 Linda.
 NMat=     1 NSing=     1 JSym2X= 2.
 CoulSu:  requested number of processors reduced to:  17 ShMem   1 Linda.
 NMat=     1 NSing=     1 JSym2X= 2.
 CoulSu:  requested number of processors reduced to:  17 ShMem   1 Linda.
 NMat=     1 NSing=     1 JSym2X= 2.
 CoulSu:  requested number of processors reduced to:  17 ShMem   1 Linda.
 NMat=     1 NSing=     1 JSym2X= 2.
 CoulSu:  requested number of processors reduced to:  17 ShMem   1 Linda.
 NMat=     1 NSing=     1 JSym2X= 2.
 CoulSu:  requested number of processors reduced to:  17 ShMem   1 Linda.
 NMat=     1 NSing=     0 JSym2X= 2.
 CoulSu:  requested number of processors reduced to:  17 ShMem   1 Linda.
 NMat=     1 NSing=     0 JSym2X= 2.
 CoulSu:  requested number of processors reduced to:  17 ShMem   1 Linda.
 NMat=     1 NSing=     0 JSym2X= 2.
 CoulSu:  requested number of processors reduced to:  17 ShMem   1 Linda.
 NMat=     1 NSing=     0 JSym2X= 2.
 CoulSu:  requested number of processors reduced to:  17 ShMem   1 Linda.
 NMat=     1 NSing=     0 JSym2X= 2.
 CoulSu:  requested number of processors reduced to:  17 ShMem   1 Linda.
 NMat=     1 NSing=     0 JSym2X= 2.
 CoulSu:  requested number of processors reduced to:  17 ShMem   1 Linda.
 NMat=     1 NSing=     0 JSym2X= 2.
 CoulSu:  requested number of processors reduced to:  17 ShMem   1 Linda.
 NMat=     1 NSing=     0 JSym2X= 2.
 CoulSu:  requested number of processors reduced to:  17 ShMem   1 Linda.
 NMat=     1 NSing=     0 JSym2X= 2.
 CoulSu:  requested number of processors reduced to:  17 ShMem   1 Linda.
 NMat=     1 NSing=     0 JSym2X= 2.
 CoulSu:  requested number of processors reduced to:  17 ShMem   1 Linda.
 NMat=     1 NSing=     0 JSym2X= 2.
 CoulSu:  requested number of processors reduced to:  17 ShMem   1 Linda.
 NMat=     1 NSing=     0 JSym2X= 2.
 CoulSu:  requested number of processors reduced to:  17 ShMem   1 Linda.
 New state      1 was old state      2
 Excitation Energies [eV] at current iteration:
 Root      1 :     7.878476676758934
 Root      2 :     7.896558151513482
 Root      3 :     8.189588228079218
 Root      4 :     8.318180629253874
 Root      5 :     8.370453912297014
 Root      6 :     8.385770559245017
 Root      7 :     8.403276785851219
 Root      8 :     8.560272326266171
 Root      9 :     8.679067878278156
 Root     10 :     8.735120456815054
 Root     11 :     8.981297354534599
 Root     12 :     9.063545806205269
 Root     13 :     9.108162341483192
 Root     14 :     9.260239280356648
 Root     15 :     9.316599155932272
 Root     16 :     9.321725652044954
 Root     17 :     9.387973153978525
 Root     18 :     9.505798417928002
 Root     19 :     9.592457137258947
 Root     20 :     9.665028958038581
 Root     21 :    10.065345281158000
 Root     22 :    10.329241249310250
 Root     23 :    10.430049357890740
 Root     24 :    10.493086557789250
 Iteration     2 Dimension    48 NMult    24 NNew     24
 Estimated number of processors is:   18
 CISAX will form     1 AO SS matrices at one time.
 NMat=     1 NSing=     1 JSym2X= 2.
 CoulSu:  requested number of processors reduced to:  17 ShMem   1 Linda.
 NMat=     1 NSing=     1 JSym2X= 2.
 CoulSu:  requested number of processors reduced to:  17 ShMem   1 Linda.
 NMat=     1 NSing=     1 JSym2X= 2.
 CoulSu:  requested number of processors reduced to:  17 ShMem   1 Linda.
 NMat=     1 NSing=     1 JSym2X= 2.
 CoulSu:  requested number of processors reduced to:  17 ShMem   1 Linda.
 NMat=     1 NSing=     1 JSym2X= 2.
 CoulSu:  requested number of processors reduced to:  17 ShMem   1 Linda.
 NMat=     1 NSing=     1 JSym2X= 2.
 CoulSu:  requested number of processors reduced to:  17 ShMem   1 Linda.
 NMat=     1 NSing=     1 JSym2X= 2.
 CoulSu:  requested number of processors reduced to:  17 ShMem   1 Linda.
 NMat=     1 NSing=     1 JSym2X= 2.
 CoulSu:  requested number of processors reduced to:  17 ShMem   1 Linda.
 NMat=     1 NSing=     1 JSym2X= 2.
 CoulSu:  requested number of processors reduced to:  17 ShMem   1 Linda.
 NMat=     1 NSing=     1 JSym2X= 2.
 CoulSu:  requested number of processors reduced to:  17 ShMem   1 Linda.
 NMat=     1 NSing=     1 JSym2X= 2.
 CoulSu:  requested number of processors reduced to:  17 ShMem   1 Linda.
 NMat=     1 NSing=     1 JSym2X= 2.
 CoulSu:  requested number of processors reduced to:  17 ShMem   1 Linda.
 NMat=     1 NSing=     0 JSym2X= 2.
 CoulSu:  requested number of processors reduced to:  17 ShMem   1 Linda.
 NMat=     1 NSing=     0 JSym2X= 2.
 CoulSu:  requested number of processors reduced to:  17 ShMem   1 Linda.
 NMat=     1 NSing=     0 JSym2X= 2.
 CoulSu:  requested number of processors reduced to:  17 ShMem   1 Linda.
 NMat=     1 NSing=     0 JSym2X= 2.
 CoulSu:  requested number of processors reduced to:  17 ShMem   1 Linda.
 NMat=     1 NSing=     0 JSym2X= 2.
 CoulSu:  requested number of processors reduced to:  17 ShMem   1 Linda.
 NMat=     1 NSing=     0 JSym2X= 2.
 CoulSu:  requested number of processors reduced to:  17 ShMem   1 Linda.
 NMat=     1 NSing=     0 JSym2X= 2.
 CoulSu:  requested number of processors reduced to:  17 ShMem   1 Linda.
 NMat=     1 NSing=     0 JSym2X= 2.
 CoulSu:  requested number of processors reduced to:  17 ShMem   1 Linda.
 NMat=     1 NSing=     0 JSym2X= 2.
 CoulSu:  requested number of processors reduced to:  17 ShMem   1 Linda.
 NMat=     1 NSing=     0 JSym2X= 2.
 CoulSu:  requested number of processors reduced to:  17 ShMem   1 Linda.
 NMat=     1 NSing=     0 JSym2X= 2.
 CoulSu:  requested number of processors reduced to:  17 ShMem   1 Linda.
 NMat=     1 NSing=     0 JSym2X= 2.
 CoulSu:  requested number of processors reduced to:  17 ShMem   1 Linda.
 New state      1 was old state      3
 Root      1 not converged, maximum delta is    0.228784615034623
 Excitation Energies [eV] at current iteration:
 Root      1 :     7.345610717568270   Change is   -0.843977510510947
 Root      2 :     7.744435917361806   Change is   -0.134040759397128
 Root      3 :     7.791499753490321   Change is   -0.105058398023161
 Root      4 :     8.024460424318084   Change is   -0.293720204935789
 Root      5 :     8.044188807664261   Change is   -2.021156473493739
 Root      6 :     8.104766120617146   Change is   -0.298510665234073
 Root      7 :     8.122230383996731   Change is   -0.263540175248285
 Root      8 :     8.248436243497716   Change is   -0.122017668799298
 Root      9 :     8.335266713246364   Change is   -1.052706440732159
 Root     10 :     8.445134594723783   Change is   -0.115137731542388
 Root     11 :     8.460600714508367   Change is   -0.602945091696904
 Root     12 :     8.538271673645722   Change is   -0.140796204632434
 Root     13 :     8.614652441703738   Change is   -0.120468015111316
 Root     14 :     8.921499517358807   Change is   -0.059797837175792
 Root     15 :     8.922166197195626   Change is   -0.583632220732376
 Root     16 :     9.006962151565142   Change is   -0.101200189918050
 Root     17 :     9.055950141172492   Change is   -0.265775510872463
 Root     18 :     9.095415095217891   Change is   -0.164824185138757
 Root     19 :     9.191168959236956   Change is   -0.125430196695315
 Root     20 :     9.280588431186322   Change is   -0.311868706072624
 Root     21 :     9.501175139114819   Change is   -0.163853818923763
 Root     22 :     9.995953778874219   Change is   -0.333287470436030
 Root     23 :    10.283568851648530   Change is   -0.146480506242211
 Root     24 :    10.292886194257650   Change is   -0.200200363531601
 Iteration     3 Dimension    54 NMult    48 NNew      6
 Estimated number of processors is:   18
 CISAX will form     1 AO SS matrices at one time.
 NMat=     1 NSing=     1 JSym2X= 2.
 CoulSu:  requested number of processors reduced to:  17 ShMem   1 Linda.
 NMat=     1 NSing=     1 JSym2X= 2.
 CoulSu:  requested number of processors reduced to:  17 ShMem   1 Linda.
 NMat=     1 NSing=     1 JSym2X= 2.
 CoulSu:  requested number of processors reduced to:  17 ShMem   1 Linda.
 NMat=     1 NSing=     0 JSym2X= 2.
 CoulSu:  requested number of processors reduced to:  17 ShMem   1 Linda.
 NMat=     1 NSing=     0 JSym2X= 2.
 CoulSu:  requested number of processors reduced to:  17 ShMem   1 Linda.
 NMat=     1 NSing=     0 JSym2X= 2.
 CoulSu:  requested number of processors reduced to:  17 ShMem   1 Linda.
 Root      1 not converged, maximum delta is    0.036822507914466
 Excitation Energies [eV] at current iteration:
 Root      1 :     7.242977915170192   Change is   -0.102632802398079
 Root      2 :     7.716286196195949   Change is   -0.028149721165857
 Root      3 :     7.786280873019342   Change is   -0.005218880470978
 Root      4 :     7.823059795490341   Change is   -0.201400628827742
 Root      5 :     8.069066218097463   Change is   -0.053164165899269
 Root      6 :     8.237942957981069   Change is   -0.010493285516647
 Iteration     4 Dimension    60 NMult    54 NNew      6
 Estimated number of processors is:   18
 CISAX will form     1 AO SS matrices at one time.
 NMat=     1 NSing=     1 JSym2X= 2.
 CoulSu:  requested number of processors reduced to:  17 ShMem   1 Linda.
 NMat=     1 NSing=     1 JSym2X= 2.
 CoulSu:  requested number of processors reduced to:  17 ShMem   1 Linda.
 NMat=     1 NSing=     1 JSym2X= 2.
 CoulSu:  requested number of processors reduced to:  17 ShMem   1 Linda.
 NMat=     1 NSing=     0 JSym2X= 2.
 CoulSu:  requested number of processors reduced to:  17 ShMem   1 Linda.
 NMat=     1 NSing=     0 JSym2X= 2.
 CoulSu:  requested number of processors reduced to:  17 ShMem   1 Linda.
 NMat=     1 NSing=     0 JSym2X= 2.
 CoulSu:  requested number of processors reduced to:  17 ShMem   1 Linda.
 Root      1 not converged, maximum delta is    0.009991549149921
 Excitation Energies [eV] at current iteration:
 Root      1 :     7.235011076113128   Change is   -0.007966839057064
 Root      2 :     7.714261037097007   Change is   -0.002025159098942
 Root      3 :     7.786070306155674   Change is   -0.000210566863669
 Root      4 :     7.813671197300920   Change is   -0.009388598189421
 Root      5 :     8.063192617315272   Change is   -0.005873600782191
 Root      6 :     8.235413487258228   Change is   -0.002529470722843
 Iteration     5 Dimension    66 NMult    60 NNew      6
 Estimated number of processors is:   18
 CISAX will form     1 AO SS matrices at one time.
 NMat=     1 NSing=     1 JSym2X= 2.
 CoulSu:  requested number of processors reduced to:  17 ShMem   1 Linda.
 NMat=     1 NSing=     1 JSym2X= 2.
 CoulSu:  requested number of processors reduced to:  17 ShMem   1 Linda.
 NMat=     1 NSing=     1 JSym2X= 2.
 CoulSu:  requested number of processors reduced to:  17 ShMem   1 Linda.
 NMat=     1 NSing=     0 JSym2X= 2.
 CoulSu:  requested number of processors reduced to:  17 ShMem   1 Linda.
 NMat=     1 NSing=     0 JSym2X= 2.
 CoulSu:  requested number of processors reduced to:  17 ShMem   1 Linda.
 NMat=     1 NSing=     0 JSym2X= 2.
 CoulSu:  requested number of processors reduced to:  17 ShMem   1 Linda.
 Root      1 not converged, maximum delta is    0.001804977568968
 Excitation Energies [eV] at current iteration:
 Root      1 :     7.234576266954515   Change is   -0.000434809158614
 Root      2 :     7.714159945356080   Change is   -0.000101091740926
 Root      3 :     7.786058259039326   Change is   -0.000012047116347
 Root      4 :     7.813256364569022   Change is   -0.000414832731898
 Root      5 :     8.062860396516610   Change is   -0.000332220798661
 Root      6 :     8.235245041728561   Change is   -0.000168445529667
 Iteration     6 Dimension    72 NMult    66 NNew      6
 Estimated number of processors is:   18
 CISAX will form     1 AO SS matrices at one time.
 NMat=     1 NSing=     1 JSym2X= 2.
 CoulSu:  requested number of processors reduced to:  17 ShMem   1 Linda.
 NMat=     1 NSing=     1 JSym2X= 2.
 CoulSu:  requested number of processors reduced to:  17 ShMem   1 Linda.
 NMat=     1 NSing=     1 JSym2X= 2.
 CoulSu:  requested number of processors reduced to:  17 ShMem   1 Linda.
 NMat=     1 NSing=     0 JSym2X= 2.
 CoulSu:  requested number of processors reduced to:  17 ShMem   1 Linda.
 NMat=     1 NSing=     0 JSym2X= 2.
 CoulSu:  requested number of processors reduced to:  17 ShMem   1 Linda.
 NMat=     1 NSing=     0 JSym2X= 2.
 CoulSu:  requested number of processors reduced to:  17 ShMem   1 Linda.
 Root      1 has converged.
 Excitation Energies [eV] at current iteration:
 Root      1 :     7.234557912858268   Change is   -0.000018354096247
 Root      2 :     7.714153554019862   Change is   -0.000006391336218
 Root      3 :     7.786057763052974   Change is   -0.000000495986352
 Root      4 :     7.813208881332614   Change is   -0.000047483236408
 Root      5 :     8.062838063564259   Change is   -0.000022332952351
 Root      6 :     8.235234916507768   Change is   -0.000010125220792
 Convergence achieved on expansion vectors.
 ***********************************************************************
 Stability analysis using <AA,BB:AA,BB> singles matrix:
 ***********************************************************************
 1PDM for each excited state written to RWF  633
 Ground to excited state transition densities written to RWF  633

 Eigenvectors of the stability matrix:
 
 Eigenvector   1:      Triplet-B1   Eigenvalue= 0.2658651  <S**2>=2.000
      12 -> 15         0.56516
      12 -> 18        -0.21162
      12 -> 21         0.15127
      12 -> 24         0.17415
      12 -> 31        -0.20559
      12 -> 34         0.10723
 The wavefunction is stable under the perturbations considered.
 Leave Link  914 at Sat Apr 17 19:41:00 2021, MaxMem=   104857600 cpu:           28027.4 elap:             712.8
 (Enter /s/ls4/users/knvvv/bin/g16sse/l508.exe)
 The wavefunction is already stable.
 Leave Link  508 at Sat Apr 17 19:41:00 2021, MaxMem=   104857600 cpu:               2.2 elap:               0.1
 (Enter /s/ls4/users/knvvv/bin/g16sse/l601.exe)
 Copying SCF densities to generalized density rwf, IOpCl= 0 IROHF=0.

 **********************************************************************

            Population analysis using the SCF density.

 **********************************************************************

 Orbital symmetries:
       Occupied  (A1) (A1) (B2) (A1) (A1) (B2) (B1) (A1) (B2) (A2)
                 (A1) (B1)
       Virtual   (A1) (B2) (A1) (B1) (B2) (A1) (A2) (B1) (A1) (B2)
                 (B2) (A1) (B1) (A1) (B2) (A2) (B1) (A1) (A1) (B2)
                 (B1) (A1) (B2) (A2) (A1) (A2) (B2) (B2) (B1) (B1)
                 (A1) (B2) (A1) (A2) (B1) (B2) (A1) (A1) (A2) (B2)
                 (B2) (B1) (A2) (A1) (B1) (A1) (B2) (A2) (A1) (B1)
                 (B2) (B2) (A1) (B1) (A1) (B1) (A2) (A1) (A2) (B2)
                 (A1) (B1) (B2) (A2) (B2) (A1) (B2) (B1) (A1) (A1)
                 (B2) (A1) (B1) (A2) (B2) (A1) (B1) (B2) (A1) (B2)
                 (A2) (A2) (B1) (A1) (A2) (B1) (A1) (B2) (B2) (A1)
                 (A2) (A1) (B1) (A1) (B1) (B2) (A2) (A1) (B1) (A2)
                 (B2) (B1) (B1) (A1) (B2) (B2) (A2) (A1) (A2) (B1)
                 (B2) (A1) (A1) (A2) (B2) (B1) (B1) (A1) (B2) (A1)
                 (B2) (A1) (A2) (B2) (A1) (A2) (B2) (A1) (B1) (A2)
                 (B2) (B1) (A1) (B2) (B1) (A1) (A2) (B2) (A1) (B2)
                 (B1) (A1) (A2) (B1) (A2) (B2) (A1) (B2) (A1) (B1)
                 (A2) (B1) (B2) (A1) (B2) (A2) (A1) (A1) (B1) (B2)
                 (B1) (A2) (A2) (A1) (B2) (A1) (B1) (A2) (B2) (A1)
                 (B1) (A1) (B1) (A1) (B2) (B1) (B2) (A2) (B2) (B1)
                 (A1) (A1) (A1) (B1) (A2) (A2) (B2) (B1) (B2) (B1)
                 (A2) (A2) (A1) (B1) (B2) (A2) (A1) (B1) (B2) (A1)
                 (B1) (B2) (A2) (A1) (A1) (A2) (A1) (B2) (B2) (A2)
                 (A1) (B2) (B1) (B1) (A1) (B2) (A2) (B1) (A1) (B2)
                 (A2) (B2) (A1) (A1) (B2) (A1) (B2) (A2) (B1) (A2)
                 (B1) (A1) (B2) (A1) (B2) (B1) (A2) (B2) (A2) (A1)
                 (B1) (B2) (B2) (A1) (B1) (B2) (A2) (A1) (B1) (B2)
                 (A1) (A2) (B2) (B1) (A2) (B1) (A1) (A2) (A1) (B1)
                 (B2) (A2) (A1) (A2) (A1) (B2) (B1) (A1) (B2) (A2)
                 (B2) (B1) (A1) (A2) (B1) (A1) (B2) (B1) (A2) (B2)
                 (A1) (A1) (A2) (B2) (B1) (A2) (B2) (B1) (B2) (B1)
                 (A1) (B1) (A2) (A1) (A2) (A1) (B2) (A2) (B1) (A1)
                 (B2) (A1) (B2) (A1) (A1) (B2) (A1) (A1) (B2) (A1)
 The electronic state is 1-A1.
 Alpha  occ. eigenvalues --  -19.64442 -10.59581 -10.59530  -1.19642  -0.77758
 Alpha  occ. eigenvalues --   -0.72627  -0.59889  -0.55982  -0.46836  -0.45386
 Alpha  occ. eigenvalues --   -0.38225  -0.35748
 Alpha virt. eigenvalues --    0.01187   0.02815   0.04292   0.04538   0.07511
 Alpha virt. eigenvalues --    0.08740   0.11294   0.11517   0.11849   0.13182
 Alpha virt. eigenvalues --    0.16642   0.16883   0.16973   0.19874   0.20246
 Alpha virt. eigenvalues --    0.21063   0.21678   0.22705   0.23997   0.24710
 Alpha virt. eigenvalues --    0.25875   0.26889   0.27743   0.28994   0.29101
 Alpha virt. eigenvalues --    0.30730   0.31151   0.31585   0.31797   0.32182
 Alpha virt. eigenvalues --    0.34213   0.35606   0.35627   0.35829   0.38536
 Alpha virt. eigenvalues --    0.39399   0.42121   0.43653   0.43700   0.44078
 Alpha virt. eigenvalues --    0.47761   0.48940   0.53758   0.54823   0.55326
 Alpha virt. eigenvalues --    0.56632   0.59678   0.60845   0.63517   0.64013
 Alpha virt. eigenvalues --    0.64079   0.68298   0.69822   0.71705   0.72485
 Alpha virt. eigenvalues --    0.77316   0.77554   0.78874   0.82990   0.84838
 Alpha virt. eigenvalues --    0.85529   0.86995   0.90294   0.92347   0.94036
 Alpha virt. eigenvalues --    0.95092   0.98801   1.01646   1.02176   1.05752
 Alpha virt. eigenvalues --    1.09138   1.09587   1.09877   1.10199   1.23276
 Alpha virt. eigenvalues --    1.26149   1.29404   1.30044   1.31764   1.32980
 Alpha virt. eigenvalues --    1.33633   1.41680   1.42091   1.45313   1.47839
 Alpha virt. eigenvalues --    1.61115   1.61398   1.66725   1.71355   1.71521
 Alpha virt. eigenvalues --    1.76741   1.80579   1.84072   1.87436   1.90042
 Alpha virt. eigenvalues --    1.92959   1.94779   1.94865   1.98568   2.02329
 Alpha virt. eigenvalues --    2.03935   2.04157   2.07366   2.09593   2.14039
 Alpha virt. eigenvalues --    2.14952   2.16702   2.18229   2.19475   2.22718
 Alpha virt. eigenvalues --    2.29741   2.29913   2.38169   2.40743   2.43825
 Alpha virt. eigenvalues --    2.44962   2.46453   2.48051   2.54334   2.55382
 Alpha virt. eigenvalues --    2.67115   2.67567   2.69190   2.70261   2.73076
 Alpha virt. eigenvalues --    2.73547   2.75758   2.77552   2.79945   2.83426
 Alpha virt. eigenvalues --    2.83611   2.89638   2.92626   2.94941   2.96994
 Alpha virt. eigenvalues --    3.05922   3.11213   3.13260   3.16985   3.23794
 Alpha virt. eigenvalues --    3.25049   3.27812   3.30474   3.35706   3.44998
 Alpha virt. eigenvalues --    3.49769   3.49876   3.60993   3.64307   3.64675
 Alpha virt. eigenvalues --    3.76706   3.83578   3.87112   3.92122   3.92438
 Alpha virt. eigenvalues --    3.92606   3.93375   4.02772   4.04960   4.05737
 Alpha virt. eigenvalues --    4.17869   4.25467   4.26999   4.29205   4.43031
 Alpha virt. eigenvalues --    4.55184   4.61654   4.66482   4.76911   4.90682
 Alpha virt. eigenvalues --    5.05610   5.07186   5.10258   5.15363   5.27829
 Alpha virt. eigenvalues --    5.32717   5.35279   5.44421   5.47301   5.47471
 Alpha virt. eigenvalues --    5.48739   5.51020   5.62785   5.63747   5.64460
 Alpha virt. eigenvalues --    5.74063   5.75837   5.80635   5.82789   5.83964
 Alpha virt. eigenvalues --    5.85495   5.88652   5.96421   5.97993   5.99793
 Alpha virt. eigenvalues --    6.01017   6.01675   6.06933   6.08476   6.08816
 Alpha virt. eigenvalues --    6.16039   6.18474   6.20517   6.23360   6.25107
 Alpha virt. eigenvalues --    6.28797   6.32794   6.33906   6.45141   6.49991
 Alpha virt. eigenvalues --    6.51373   6.52272   6.53756   6.68608   6.74419
 Alpha virt. eigenvalues --    6.77726   6.83795   6.98704   7.01338   7.02417
 Alpha virt. eigenvalues --    7.06049   7.12412   7.16800   7.18614   7.26591
 Alpha virt. eigenvalues --    7.35226   7.37421   7.40909   7.42055   7.43106
 Alpha virt. eigenvalues --    7.45874   7.47470   7.54286   7.55763   7.57316
 Alpha virt. eigenvalues --    7.59186   7.63619   7.65494   7.79514   7.92457
 Alpha virt. eigenvalues --    7.95776   7.96286   8.03047   8.03843   8.04975
 Alpha virt. eigenvalues --    8.07168   8.07923   8.15338   8.16919   8.18800
 Alpha virt. eigenvalues --    8.23989   8.25258   8.26004   8.28771   8.29195
 Alpha virt. eigenvalues --    8.35082   8.35746   8.49467   8.49629   8.74015
 Alpha virt. eigenvalues --    8.75973   8.81725   8.81741   8.97325   9.02559
 Alpha virt. eigenvalues --    9.04438   9.28700   9.29774   9.38989   9.41086
 Alpha virt. eigenvalues --    9.43406   9.45654   9.53361   9.59256   9.66202
 Alpha virt. eigenvalues --    9.70861   9.79801   9.82227   9.83324   9.98821
 Alpha virt. eigenvalues --   10.06124  10.07506  10.11634  10.19041  10.35729
 Alpha virt. eigenvalues --   10.66463  10.75609  11.17068  11.23939  11.43545
 Alpha virt. eigenvalues --   11.56124  11.79258  11.89047  12.03420  12.09137
 Alpha virt. eigenvalues --   12.33206  12.45672  12.48695  12.59867  12.83699
 Alpha virt. eigenvalues --   13.10335  13.14364  13.46789  14.17225  28.71164
 Alpha virt. eigenvalues --   28.94401  48.20863 146.17683 146.37217 251.28765
          Condensed to atoms (all electrons):
               1          2          3          4          5          6
     1  O    8.163456   0.189124   0.189124  -0.060778  -0.060778  -0.060778
     2  C    0.189124   5.350145   0.171404   0.362128   0.362128  -0.054113
     3  C    0.189124   0.171404   5.350145  -0.054113  -0.054113   0.362128
     4  H   -0.060778   0.362128  -0.054113   0.647400  -0.159649   0.075271
     5  H   -0.060778   0.362128  -0.054113  -0.159649   0.647400  -0.048259
     6  H   -0.060778  -0.054113   0.362128   0.075271  -0.048259   0.647400
     7  H   -0.060778  -0.054113   0.362128  -0.048259   0.075271  -0.159649
               7
     1  O   -0.060778
     2  C   -0.054113
     3  C    0.362128
     4  H   -0.048259
     5  H    0.075271
     6  H   -0.159649
     7  H    0.647400
 Mulliken charges:
               1
     1  O   -0.298593
     2  C   -0.326704
     3  C   -0.326704
     4  H    0.238000
     5  H    0.238000
     6  H    0.238000
     7  H    0.238000
 Sum of Mulliken charges =   0.00000
 Mulliken charges with hydrogens summed into heavy atoms:
               1
     1  O   -0.298593
     2  C    0.149296
     3  C    0.149296
 Electronic spatial extent (au):  <R**2>=            130.3987
 Charge=              0.0000 electrons
 Dipole moment (field-independent basis, Debye):
    X=              0.0000    Y=             -0.0000    Z=             -1.9647  Tot=              1.9647
 Quadrupole moment (field-independent basis, Debye-Ang):
   XX=            -17.3710   YY=            -16.4521   ZZ=            -21.0133
   XY=              0.0000   XZ=              0.0000   YZ=             -0.0000
 Traceless Quadrupole moment (field-independent basis, Debye-Ang):
   XX=              0.9078   YY=              1.8267   ZZ=             -2.7345
   XY=              0.0000   XZ=              0.0000   YZ=             -0.0000
 Octapole moment (field-independent basis, Debye-Ang**2):
  XXX=             -0.0000  YYY=              0.0000  ZZZ=              2.0384  XYY=              0.0000
  XXY=              0.0000  XXZ=             -0.2773  XZZ=              0.0000  YZZ=             -0.0000
  YYZ=             -0.0964  XYZ=              0.0000
 Hexadecapole moment (field-independent basis, Debye-Ang**3):
 XXXX=            -30.4039 YYYY=            -77.6265 ZZZZ=            -60.6977 XXXY=             -0.0000
 XXXZ=             -0.0000 YYYX=             -0.0000 YYYZ=              0.0000 ZZZX=              0.0000
 ZZZY=              0.0000 XXYY=            -15.2173 XXZZ=            -15.5184 YYZZ=            -21.9859
 XXYZ=             -0.0000 YYXZ=             -0.0000 ZZXY=              0.0000
 N-N= 7.531656375697D+01 E-N=-5.103756210702D+02  KE= 1.531584080188D+02
 PrsmSu:  requested number of processors reduced to:  21 ShMem   1 Linda.
 No NMR shielding tensors so no spin-rotation constants.
 Leave Link  601 at Sat Apr 17 19:41:05 2021, MaxMem=   104857600 cpu:             240.6 elap:               5.3
 (Enter /s/ls4/users/knvvv/bin/g16sse/l9999.exe)

 Test job not archived.
 1\1\GINC-N305\Stability\RM062X\Gen\C2H4O1\KNVVV\17-Apr-2021\0\\#P M062
 X/GEN Integral=UltraFineGrid SCF=NoSymm Stable=(RExt, Opt) IOp(1/33=1)
 \\Database calculations.\\0,1\O,0,0.,0.,0.\C,0,0.,0.,1.4293376522\C,0,
 1.2577709619,0.,0.6789833071\H,0,-0.3449389784,-0.9194282207,1.8871692
 458\H,0,-0.3449389784,0.9194282207,1.8871692458\H,0,1.8245055547,-0.91
 94282207,0.5929335057\H,0,1.8245055547,0.9194282207,0.5929335057\\Vers
 ion=ES64L-G16RevA.03\State=1-A1\HF=-153.7981092\RMSD=5.317e-09\Dipole=
 0.396022,0.,0.6638264\Quadrupole=0.4679912,0.6749339,-1.1429251,0.,-1.
 4920571,0.\PG=C02V [C2(O1),SGV(C2),X(H4)]\\@


 BETTER TO HUNT IN FIELDS, FOR HEALTH UNBOUGHT
 THAN FEE THE DOCTOR FOR A NAUSEOUS DRAUGHT.
 THE WISE, FOR CURE, ON EXERCISE DEPEND;
 GOD NEVER MADE HIS WORK FOR MAN TO MEND.
     -- JOHN DRYDEN (1631-1700)
 Job cpu time:       0 days  9 hours 55 minutes 17.5 seconds.
 Elapsed time:       0 days  0 hours 14 minutes 43.9 seconds.
 File lengths (MBytes):  RWF=    210 Int=      0 D2E=      0 Chk=     13 Scr=      1
 Normal termination of Gaussian 16 at Sat Apr 17 19:41:05 2021.
