 Entering Gaussian System, Link 0=/s/ls4/users/knvvv/bin/g16sse/g16
 Input=data/database/M062X--def2-QZVP--WATER27_H3Op.gjf
 Output=data/database/M062X--def2-QZVP--WATER27_H3Op.log
 Initial command:
 /s/ls4/users/knvvv/bin/g16sse/l1.exe "/s/ls4/users/knvvv/bin/scratch/Gau-8231.inp" -scrdir="/s/ls4/users/knvvv/bin/scratch/"
 Entering Link 1 = /s/ls4/users/knvvv/bin/g16sse/l1.exe PID=      8232.
  
 Copyright (c) 1988,1990,1992,1993,1995,1998,2003,2009,2016,
            Gaussian, Inc.  All Rights Reserved.
  
 This is part of the Gaussian(R) 16 program.  It is based on
 the Gaussian(R) 09 system (copyright 2009, Gaussian, Inc.),
 the Gaussian(R) 03 system (copyright 2003, Gaussian, Inc.),
 the Gaussian(R) 98 system (copyright 1998, Gaussian, Inc.),
 the Gaussian(R) 94 system (copyright 1995, Gaussian, Inc.),
 the Gaussian 92(TM) system (copyright 1992, Gaussian, Inc.),
 the Gaussian 90(TM) system (copyright 1990, Gaussian, Inc.),
 the Gaussian 88(TM) system (copyright 1988, Gaussian, Inc.),
 the Gaussian 86(TM) system (copyright 1986, Carnegie Mellon
 University), and the Gaussian 82(TM) system (copyright 1983,
 Carnegie Mellon University). Gaussian is a federally registered
 trademark of Gaussian, Inc.
  
 This software contains proprietary and confidential information,
 including trade secrets, belonging to Gaussian, Inc.
  
 This software is provided under written license and may be
 used, copied, transmitted, or stored only in accord with that
 written license.
  
 The following legend is applicable only to US Government
 contracts under FAR:
  
                    RESTRICTED RIGHTS LEGEND
  
 Use, reproduction and disclosure by the US Government is
 subject to restrictions as set forth in subparagraphs (a)
 and (c) of the Commercial Computer Software - Restricted
 Rights clause in FAR 52.227-19.
  
 Gaussian, Inc.
 340 Quinnipiac St., Bldg. 40, Wallingford CT 06492
  
  
 ---------------------------------------------------------------
 Warning -- This program may not be used in any manner that
 competes with the business of Gaussian, Inc. or will provide
 assistance to any competitor of Gaussian, Inc.  The licensee
 of this program is prohibited from giving any competitor of
 Gaussian, Inc. access to this program.  By using this program,
 the user acknowledges that Gaussian, Inc. is engaged in the
 business of creating and licensing software in the field of
 computational chemistry and represents and warrants to the
 licensee that it is not a competitor of Gaussian, Inc. and that
 it will not use this program in any manner prohibited above.
 ---------------------------------------------------------------
  

 Cite this work as:
 Gaussian 16, Revision A.03,
 M. J. Frisch, G. W. Trucks, H. B. Schlegel, G. E. Scuseria, 
 M. A. Robb, J. R. Cheeseman, G. Scalmani, V. Barone, 
 G. A. Petersson, H. Nakatsuji, X. Li, M. Caricato, A. V. Marenich, 
 J. Bloino, B. G. Janesko, R. Gomperts, B. Mennucci, H. P. Hratchian, 
 J. V. Ortiz, A. F. Izmaylov, J. L. Sonnenberg, D. Williams-Young, 
 F. Ding, F. Lipparini, F. Egidi, J. Goings, B. Peng, A. Petrone, 
 T. Henderson, D. Ranasinghe, V. G. Zakrzewski, J. Gao, N. Rega, 
 G. Zheng, W. Liang, M. Hada, M. Ehara, K. Toyota, R. Fukuda, 
 J. Hasegawa, M. Ishida, T. Nakajima, Y. Honda, O. Kitao, H. Nakai, 
 T. Vreven, K. Throssell, J. A. Montgomery, Jr., J. E. Peralta, 
 F. Ogliaro, M. J. Bearpark, J. J. Heyd, E. N. Brothers, K. N. Kudin, 
 V. N. Staroverov, T. A. Keith, R. Kobayashi, J. Normand, 
 K. Raghavachari, A. P. Rendell, J. C. Burant, S. S. Iyengar, 
 J. Tomasi, M. Cossi, J. M. Millam, M. Klene, C. Adamo, R. Cammi, 
 J. W. Ochterski, R. L. Martin, K. Morokuma, O. Farkas, 
 J. B. Foresman, and D. J. Fox, Gaussian, Inc., Wallingford CT, 2016.
 
 ******************************************
 Gaussian 16:  ES64L-G16RevA.03 25-Dec-2016
                18-Apr-2021 
 ******************************************
 %RWF=temp12_99082,70GB
 %nprocshared=48
 Will use up to   48 processors via shared memory.
 Default route: MaxDisk=80GB
 ----------------------------------------------------------------------
 #P M062X/Def2QZVP Integral=UltraFineGrid SCF=NoSymm Stable=(RExt, Opt)
  IOp(1/33=1)
 ----------------------------------------------------------------------
 1/33=1,38=1,172=1/1;
 2/12=2,17=6,18=5,40=1/2;
 3/5=45,7=101,11=2,25=1,30=1,74=-55,75=-5/1,2,3;
 4/9=2/1;
 5/5=2,38=5/2;
 6/7=2,8=2,9=2,10=2,28=1/1;
 8/6=1,10=90,11=11/1;
 9/8=-3,42=1,46=1/14;
 5/5=2,8=3,17=40,38=5/8(-2);
 6/7=2,8=2,9=2,10=2,28=1/1;
 99/5=1,9=1/99;
 Leave Link    1 at Sun Apr 18 05:08:39 2021, MaxMem=           0 cpu:               8.3 elap:               0.2
 (Enter /s/ls4/users/knvvv/bin/g16sse/l101.exe)
 ONIOM data not found on unit 2.
 ----------------------
 Database calculations.
 ----------------------
 TstMul:  ICh=     1
 TstMul:  Mul=     1
 TstMul:  ICh=     1
 TstMul:  Mul=     1
 Symbolic Z-matrix:
 Charge =  1 Multiplicity = 1
 O                     0.        0.       -0.20801 
 H                     0.46976   0.81364   0.06934 
 H                     0.46976  -0.81364   0.06934 
 H                    -0.93951   0.        0.06934 
 
 RdStrC is calling ZToCFu for IStruc=1 NZ=     4.
 PrtBox:  NBox=     1 Levels=  1 BoxLen=    8.00 SMaxX=        3.08
          Shift=            1.775423            1.537561            0.393083
 Box      1 Number                   0 centers from      1 to      4:
 After GenITR:
 ITRead=  0  0  0  0
 MicOpt= -1 -1 -1 -1
 ITRead=  0  0  0  0
 MicOpt= -1 -1 -1 -1
 NAtoms=      4 NQM=        4 NQMF=       0 NMMI=      0 NMMIF=      0
                NMic=       0 NMicF=      0.
                    Isotopes and Nuclear Properties:
 (Nuclear quadrupole moments (NQMom) in fm**2, nuclear magnetic moments (NMagM)
  in nuclear magnetons)

  Atom         1           2           3           4
 IAtWgt=          16           1           1           1
 AtmWgt=  15.9949146   1.0078250   1.0078250   1.0078250
 NucSpn=           0           1           1           1
 AtZEff=  -0.0000000  -0.0000000  -0.0000000  -0.0000000
 NQMom=    0.0000000   0.0000000   0.0000000   0.0000000
 NMagM=    0.0000000   2.7928460   2.7928460   2.7928460
 AtZNuc=   8.0000000   1.0000000   1.0000000   1.0000000
 No MM parameters found.
 Leave Link  101 at Sun Apr 18 05:08:39 2021, MaxMem=   104857600 cpu:               5.3 elap:               0.1
 (Enter /s/ls4/users/knvvv/bin/g16sse/l202.exe)
                          Input orientation:                          
 ---------------------------------------------------------------------
 Center     Atomic      Atomic             Coordinates (Angstroms)
 Number     Number       Type             X           Y           Z
 ---------------------------------------------------------------------
      1          8           0        0.000000    0.000000   -0.208011
      2          1           0        0.469757    0.813642    0.069337
      3          1           0        0.469757   -0.813642    0.069337
      4          1           0       -0.939513    0.000000    0.069337
 ---------------------------------------------------------------------
                    Distance matrix (angstroms):
                    1          2          3          4
     1  O    0.000000
     2  H    0.979595   0.000000
     3  H    0.979595   1.627285   0.000000
     4  H    0.979595   1.627285   1.627285   0.000000
 Stoichiometry    H3O(1+)
 Framework group  C3V[C3(O),3SGV(H)]
 Deg. of freedom     2
 Full point group                 C3V     NOp   6
 Largest Abelian subgroup         CS      NOp   2
 Largest concise Abelian subgroup CS      NOp   2
                         Standard orientation:                         
 ---------------------------------------------------------------------
 Center     Atomic      Atomic             Coordinates (Angstroms)
 Number     Number       Type             X           Y           Z
 ---------------------------------------------------------------------
      1          8           0        0.000000    0.000000    0.075640
      2          1           0        0.000000    0.939513   -0.201707
      3          1           0       -0.813642   -0.469757   -0.201707
      4          1           0        0.813642   -0.469757   -0.201707
 ---------------------------------------------------------------------
 Rotational constants (GHZ):         330.3162612         330.3162612         189.3673288
 Leave Link  202 at Sun Apr 18 05:08:39 2021, MaxMem=   104857600 cpu:               9.7 elap:               0.2
 (Enter /s/ls4/users/knvvv/bin/g16sse/l301.exe)
 Standard basis: def2QZVP (5D, 7F)
 Ernie: Thresh=  0.10000D-02 Tol=  0.10000D-05 Strict=F.
 There are   107 symmetry adapted cartesian basis functions of A'  symmetry.
 There are    70 symmetry adapted cartesian basis functions of A"  symmetry.
 There are    87 symmetry adapted basis functions of A'  symmetry.
 There are    60 symmetry adapted basis functions of A"  symmetry.
   147 basis functions,   206 primitive gaussians,   177 cartesian basis functions
     5 alpha electrons        5 beta electrons
       nuclear repulsion energy        13.9403695352 Hartrees.
 IExCor= 4336 DFT=T Ex+Corr=M062X ExCW=0 ScaHFX=  0.540000
 ScaDFX=  1.000000  1.000000  1.000000  1.000000 ScalE2=  1.000000  1.000000
 IRadAn=      5 IRanWt=     -1 IRanGd=            0 ICorTp=0 IEmpDi=  4
 NAtoms=    4 NActive=    4 NUniq=    2 SFac= 4.00D+00 NAtFMM=   60 NAOKFM=F Big=F
 Integral buffers will be    131072 words long.
 Raffenetti 2 integral format.
 Two-electron integral symmetry is turned on.
 Leave Link  301 at Sun Apr 18 05:08:40 2021, MaxMem=   104857600 cpu:               6.4 elap:               0.2
 (Enter /s/ls4/users/knvvv/bin/g16sse/l302.exe)
 NPDir=0 NMtPBC=     1 NCelOv=     1 NCel=       1 NClECP=     1 NCelD=      1
         NCelK=      1 NCelE2=     1 NClLst=     1 CellRange=     0.0.
 One-electron integrals computed using PRISM.
 One-electron integral symmetry used in STVInt
 PrsmSu:  requested number of processors reduced to:   4 ShMem   1 Linda.
 PrsmSu:  requested number of processors reduced to:  21 ShMem   1 Linda.
   6 Symmetry operations used in ECPInt.
 ECPInt:  NShTT=    1128 NPrTT=    2403 LenC2=    1129 LenP2D=    2319.
 LDataN:  DoStor=T MaxTD1= 8 Len=  415
 Number of processors reduced to  38 by ecpmxn.
 NBasis=   147 RedAO= T EigKep=  2.00D-04  NBF=    87    60
 NBsUse=   147 1.00D-06 EigRej= -1.00D+00 NBFU=    87    60
 Precomputing XC quadrature grid using
 IXCGrd= 4 IRadAn=           5 IRanWt=          -1 IRanGd=           0 AccXCQ= 0.00D+00.
 Generated NRdTot=       0 NPtTot=           0 NUsed=           0 NTot=          32
 NSgBfM=   177   177   177   177   177 MxSgAt=     4 MxSgA2=     4.
 Leave Link  302 at Sun Apr 18 05:08:50 2021, MaxMem=   104857600 cpu:             461.6 elap:               9.9
 (Enter /s/ls4/users/knvvv/bin/g16sse/l303.exe)
 DipDrv:  MaxL=1.
 Leave Link  303 at Sun Apr 18 05:08:50 2021, MaxMem=   104857600 cpu:              26.7 elap:               0.6
 (Enter /s/ls4/users/knvvv/bin/g16sse/l401.exe)
 SCF N**3 symmetry information disabled.
 ExpMin= 8.03D-02 ExpMax= 1.17D+05 ExpMxC= 1.13D+03 IAcc=3 IRadAn=         5 AccDes= 0.00D+00
 Harris functional with IExCor= 1009 and IRadAn=       5 diagonalized for initial guess.
 HarFok:  IExCor= 1009 AccDes= 0.00D+00 IRadAn=         5 IDoV= 1 UseB2=F ITyADJ=14
 ICtDFT=  3500011 ScaDFX=  1.000000  1.000000  1.000000  1.000000
 FoFCou: FMM=F IPFlag=           0 FMFlag=      100000 FMFlg1=           0
         NFxFlg=           0 DoJE=T BraDBF=F KetDBF=T FulRan=T
         wScrn=  0.000000 ICntrl=       500 IOpCl=  0 I1Cent=   200000004 NGrid=           0
         NMat0=    1 NMatS0=      1 NMatT0=    0 NMatD0=    1 NMtDS0=    0 NMtDT0=    0
 Petite list used in FoFCou.
 CoulSu:  requested number of processors reduced to:  21 ShMem   1 Linda.
 CoulSu:  requested number of processors reduced to:  21 ShMem   1 Linda.
 CoulSu:  requested number of processors reduced to:  21 ShMem   1 Linda.
 CoulSu:  requested number of processors reduced to:  21 ShMem   1 Linda.
 Harris En= -76.7870240094076    
 JPrj=0 DoOrth=F DoCkMO=F.
 Initial guess orbital symmetries:
       Occupied  (A1) (A1) (E) (E) (A1)
       Virtual   (A1) (E) (E) (A1) (E) (E) (A1) (E) (E) (E) (E)
                 (A1) (A2) (E) (E) (A1) (A1) (E) (E) (E) (E) (A1)
                 (E) (E) (A1) (E) (E) (A1) (E) (E) (A1) (E) (E)
                 (A2) (A2) (E) (E) (A1) (E) (E) (E) (E) (A1) (E)
                 (E) (E) (E) (E) (E) (A1) (A2) (A1) (A1) (E) (E)
                 (A1) (E) (E) (A1) (E) (E) (E) (E) (A2) (E) (E)
                 (A1) (A1) (E) (E) (E) (E) (E) (E) (A2) (A1) (E)
                 (E) (A2) (E) (E) (A1) (A1) (A2) (E) (E) (E) (E)
                 (A1) (E) (E) (A1) (E) (E) (E) (E) (A2) (E) (E)
                 (A1) (E) (E) (E) (E) (A1) (A1) (A2) (E) (E) (E)
                 (E) (A1) (A2) (E) (E) (A1) (E) (E) (A1) (E) (E)
                 (E) (E) (A1) (E) (E) (A1) (A2) (E) (E) (A1) (A2)
                 (E) (E) (E) (E) (A1) (E) (E) (A1) (A1) (A1)
 The electronic state of the initial guess is 1-A1.
 Leave Link  401 at Sun Apr 18 05:08:56 2021, MaxMem=   104857600 cpu:             272.6 elap:               6.0
 (Enter /s/ls4/users/knvvv/bin/g16sse/l502.exe)
 Integral symmetry usage will be decided dynamically.
 Closed shell SCF:
 Using DIIS extrapolation, IDIIS=  1040.
 NGot=   104857600 LenX=   104784343 LenY=   104752573
 Requested convergence on RMS density matrix=1.00D-08 within 128 cycles.
 Requested convergence on MAX density matrix=1.00D-06.
 Requested convergence on             energy=1.00D-06.
 No special actions if energy rises.
 Fock matrices will be formed incrementally for  20 cycles.
 Integral accuracy reduced to 1.0D-05 until final iterations.

 Cycle   1  Pass 0  IDiag  1:
 FoFJK:  IHMeth= 1 ICntrl=       0 DoSepK=F KAlg= 0 I1Cent=           0 FoldK=F
 IRaf= 990000000 NMat=       1 IRICut=       1 DoRegI=T DoRafI=F ISym2E= 1 IDoP0=0 IntGTp=1.
 FoFCou: FMM=F IPFlag=           0 FMFlag=      100000 FMFlg1=           0
         NFxFlg=           0 DoJE=F BraDBF=F KetDBF=F FulRan=T
         wScrn=  0.000000 ICntrl=         0 IOpCl=  0 I1Cent=           0 NGrid=           0
         NMat0=    1 NMatS0=      1 NMatT0=    0 NMatD0=    1 NMtDS0=    0 NMtDT0=    0
 Petite list used in FoFCou.
 CoulSu:  requested number of processors reduced to:  21 ShMem   1 Linda.
 E= -76.6893891331742    
 DIIS: error= 3.96D-02 at cycle   1 NSaved=   1.
 NSaved= 1 IEnMin= 1 EnMin= -76.6893891331742     IErMin= 1 ErrMin= 3.96D-02
 ErrMax= 3.96D-02  0.00D+00 EMaxC= 1.00D-01 BMatC= 6.76D-02 BMatP= 6.76D-02
 IDIUse=3 WtCom= 6.04D-01 WtEn= 3.96D-01
 Coeff-Com:  0.100D+01
 Coeff-En:   0.100D+01
 Coeff:      0.100D+01
 Gap=     0.535 Goal=   None    Shift=    0.000
 GapD=    0.535 DampG=2.000 DampE=0.500 DampFc=1.0000 IDamp=-1.
 RMSDP=7.97D-04 MaxDP=2.50D-02              OVMax= 6.19D-02

 Cycle   2  Pass 0  IDiag  1:
 RMSU=  7.83D-04    CP:  9.75D-01
 CoulSu:  requested number of processors reduced to:  21 ShMem   1 Linda.
 E= -76.6930569969273     Delta-E=       -0.003667863753 Rises=F Damp=F
 DIIS: error= 2.24D-02 at cycle   2 NSaved=   2.
 NSaved= 2 IEnMin= 2 EnMin= -76.6930569969273     IErMin= 2 ErrMin= 2.24D-02
 ErrMax= 2.24D-02  0.00D+00 EMaxC= 1.00D-01 BMatC= 2.78D-02 BMatP= 6.76D-02
 IDIUse=3 WtCom= 7.76D-01 WtEn= 2.24D-01
 Coeff-Com:  0.365D+00 0.635D+00
 Coeff-En:   0.443D+00 0.557D+00
 Coeff:      0.383D+00 0.617D+00
 Gap=     0.612 Goal=   None    Shift=    0.000
 RMSDP=4.61D-04 MaxDP=1.49D-02 DE=-3.67D-03 OVMax= 4.02D-02

 Cycle   3  Pass 0  IDiag  1:
 RMSU=  3.81D-04    CP:  9.97D-01  7.16D-01
 CoulSu:  requested number of processors reduced to:  21 ShMem   1 Linda.
 E= -76.7083420130624     Delta-E=       -0.015285016135 Rises=F Damp=F
 DIIS: error= 6.21D-03 at cycle   3 NSaved=   3.
 NSaved= 3 IEnMin= 3 EnMin= -76.7083420130624     IErMin= 3 ErrMin= 6.21D-03
 ErrMax= 6.21D-03  0.00D+00 EMaxC= 1.00D-01 BMatC= 2.07D-03 BMatP= 2.78D-02
 IDIUse=3 WtCom= 9.38D-01 WtEn= 6.21D-02
 Coeff-Com: -0.613D-02 0.210D+00 0.796D+00
 Coeff-En:   0.000D+00 0.000D+00 0.100D+01
 Coeff:     -0.575D-02 0.197D+00 0.809D+00
 Gap=     0.595 Goal=   None    Shift=    0.000
 RMSDP=8.77D-05 MaxDP=3.15D-03 DE=-1.53D-02 OVMax= 8.96D-03

 Cycle   4  Pass 0  IDiag  1:
 RMSU=  2.88D-05    CP:  9.92D-01  7.78D-01  8.40D-01
 CoulSu:  requested number of processors reduced to:  21 ShMem   1 Linda.
 E= -76.7095289668182     Delta-E=       -0.001186953756 Rises=F Damp=F
 DIIS: error= 3.67D-04 at cycle   4 NSaved=   4.
 NSaved= 4 IEnMin= 4 EnMin= -76.7095289668182     IErMin= 4 ErrMin= 3.67D-04
 ErrMax= 3.67D-04  0.00D+00 EMaxC= 1.00D-01 BMatC= 9.32D-06 BMatP= 2.07D-03
 IDIUse=3 WtCom= 9.96D-01 WtEn= 3.67D-03
 Coeff-Com: -0.317D-02 0.252D-01 0.150D+00 0.828D+00
 Coeff-En:   0.000D+00 0.000D+00 0.000D+00 0.100D+01
 Coeff:     -0.316D-02 0.251D-01 0.150D+00 0.828D+00
 Gap=     0.596 Goal=   None    Shift=    0.000
 RMSDP=9.00D-06 MaxDP=3.23D-04 DE=-1.19D-03 OVMax= 7.32D-04

 Initial convergence to 1.0D-05 achieved.  Increase integral accuracy.
 Cycle   5  Pass 1  IDiag  1:
 CoulSu:  requested number of processors reduced to:  21 ShMem   1 Linda.
 E= -76.7095102057938     Delta-E=        0.000018761024 Rises=F Damp=F
 DIIS: error= 5.20D-05 at cycle   1 NSaved=   1.
 NSaved= 1 IEnMin= 1 EnMin= -76.7095102057938     IErMin= 1 ErrMin= 5.20D-05
 ErrMax= 5.20D-05  0.00D+00 EMaxC= 1.00D-01 BMatC= 2.52D-07 BMatP= 2.52D-07
 IDIUse=1 WtCom= 1.00D+00 WtEn= 0.00D+00
 Coeff-Com:  0.100D+01
 Coeff:      0.100D+01
 Gap=     0.596 Goal=   None    Shift=    0.000
 RMSDP=9.00D-06 MaxDP=3.23D-04 DE= 1.88D-05 OVMax= 1.09D-04

 Cycle   6  Pass 1  IDiag  1:
 RMSU=  5.97D-06    CP:  1.00D+00
 CoulSu:  requested number of processors reduced to:  21 ShMem   1 Linda.
 E= -76.7095103015312     Delta-E=       -0.000000095737 Rises=F Damp=F
 DIIS: error= 1.57D-05 at cycle   2 NSaved=   2.
 NSaved= 2 IEnMin= 2 EnMin= -76.7095103015312     IErMin= 2 ErrMin= 1.57D-05
 ErrMax= 1.57D-05  0.00D+00 EMaxC= 1.00D-01 BMatC= 9.41D-09 BMatP= 2.52D-07
 IDIUse=1 WtCom= 1.00D+00 WtEn= 0.00D+00
 Coeff-Com:  0.379D-01 0.962D+00
 Coeff:      0.379D-01 0.962D+00
 Gap=     0.596 Goal=   None    Shift=    0.000
 RMSDP=4.40D-07 MaxDP=1.97D-05 DE=-9.57D-08 OVMax= 4.84D-05

 Cycle   7  Pass 1  IDiag  1:
 RMSU=  3.93D-07    CP:  1.00D+00  9.80D-01
 CoulSu:  requested number of processors reduced to:  21 ShMem   1 Linda.
 E= -76.7095103045020     Delta-E=       -0.000000002971 Rises=F Damp=F
 DIIS: error= 1.12D-05 at cycle   3 NSaved=   3.
 NSaved= 3 IEnMin= 3 EnMin= -76.7095103045020     IErMin= 3 ErrMin= 1.12D-05
 ErrMax= 1.12D-05  0.00D+00 EMaxC= 1.00D-01 BMatC= 5.73D-09 BMatP= 9.41D-09
 IDIUse=1 WtCom= 1.00D+00 WtEn= 0.00D+00
 Coeff-Com: -0.143D-01 0.432D+00 0.583D+00
 Coeff:     -0.143D-01 0.432D+00 0.583D+00
 Gap=     0.596 Goal=   None    Shift=    0.000
 RMSDP=1.70D-07 MaxDP=6.06D-06 DE=-2.97D-09 OVMax= 1.74D-05

 Cycle   8  Pass 1  IDiag  1:
 RMSU=  1.28D-07    CP:  1.00D+00  9.86D-01  7.59D-01
 CoulSu:  requested number of processors reduced to:  21 ShMem   1 Linda.
 E= -76.7095103078340     Delta-E=       -0.000000003332 Rises=F Damp=F
 DIIS: error= 1.58D-06 at cycle   4 NSaved=   4.
 NSaved= 4 IEnMin= 4 EnMin= -76.7095103078340     IErMin= 4 ErrMin= 1.58D-06
 ErrMax= 1.58D-06  0.00D+00 EMaxC= 1.00D-01 BMatC= 1.16D-10 BMatP= 5.73D-09
 IDIUse=1 WtCom= 1.00D+00 WtEn= 0.00D+00
 Coeff-Com: -0.439D-02-0.192D-01 0.999D-01 0.924D+00
 Coeff:     -0.439D-02-0.192D-01 0.999D-01 0.924D+00
 Gap=     0.596 Goal=   None    Shift=    0.000
 RMSDP=5.99D-08 MaxDP=2.00D-06 DE=-3.33D-09 OVMax= 5.26D-06

 Cycle   9  Pass 1  IDiag  1:
 RMSU=  3.62D-08    CP:  1.00D+00  9.89D-01  8.63D-01  1.14D+00
 CoulSu:  requested number of processors reduced to:  21 ShMem   1 Linda.
 E= -76.7095103079285     Delta-E=       -0.000000000094 Rises=F Damp=F
 DIIS: error= 2.19D-07 at cycle   5 NSaved=   5.
 NSaved= 5 IEnMin= 5 EnMin= -76.7095103079285     IErMin= 5 ErrMin= 2.19D-07
 ErrMax= 2.19D-07  0.00D+00 EMaxC= 1.00D-01 BMatC= 2.34D-12 BMatP= 1.16D-10
 IDIUse=1 WtCom= 1.00D+00 WtEn= 0.00D+00
 Coeff-Com:  0.214D-03-0.222D-01-0.170D-01 0.716D-01 0.967D+00
 Coeff:      0.214D-03-0.222D-01-0.170D-01 0.716D-01 0.967D+00
 Gap=     0.596 Goal=   None    Shift=    0.000
 RMSDP=8.92D-09 MaxDP=2.45D-07 DE=-9.44D-11 OVMax= 7.26D-07

 SCF Done:  E(RM062X) =  -76.7095103079     A.U. after    9 cycles
            NFock=  9  Conv=0.89D-08     -V/T= 2.0033
 KE= 7.645792026718D+01 PE=-2.050118912895D+02 EE= 3.790409117912D+01
 Leave Link  502 at Sun Apr 18 05:10:39 2021, MaxMem=   104857600 cpu:            4736.5 elap:             103.1
 (Enter /s/ls4/users/knvvv/bin/g16sse/l601.exe)
 Copying SCF densities to generalized density rwf, IOpCl= 0 IROHF=0.

 **********************************************************************

            Population analysis using the SCF density.

 **********************************************************************

 Orbital symmetries:
       Occupied  (A1) (A1) (E) (E) (A1)
       Virtual   (A1) (E) (E) (A1) (E) (E) (A1) (E) (E) (E) (E)
                 (A1) (A2) (E) (E) (A1) (A1) (E) (E) (E) (E) (A1)
                 (A1) (E) (E) (E) (E) (A1) (E) (E) (A1) (E) (E)
                 (A2) (A2) (E) (E) (A1) (E) (E) (E) (E) (A1) (E)
                 (E) (E) (E) (E) (E) (A2) (A1) (A1) (A1) (E) (E)
                 (A1) (E) (E) (A1) (E) (E) (E) (E) (A2) (E) (E)
                 (A1) (A1) (E) (E) (E) (E) (E) (E) (A2) (A1) (E)
                 (E) (A2) (E) (E) (A1) (A2) (A1) (E) (E) (A1) (E)
                 (E) (E) (E) (A1) (E) (E) (E) (E) (A2) (E) (E)
                 (A1) (E) (E) (E) (E) (A1) (A1) (A2) (E) (E) (E)
                 (E) (A1) (A2) (E) (E) (A1) (E) (E) (A1) (E) (E)
                 (E) (E) (A1) (E) (E) (A1) (A2) (E) (E) (A1) (A2)
                 (E) (E) (E) (E) (A1) (E) (E) (A1) (A1) (A1)
 The electronic state is 1-A1.
 Alpha  occ. eigenvalues --  -20.05771  -1.57515  -1.01812  -1.01812  -0.83533
 Alpha virt. eigenvalues --   -0.23953  -0.15262  -0.15262  -0.01726  -0.01110
 Alpha virt. eigenvalues --   -0.01110   0.04459   0.13369   0.13369   0.17261
 Alpha virt. eigenvalues --    0.17261   0.28794   0.47606   0.51152   0.51152
 Alpha virt. eigenvalues --    0.53273   0.58339   0.66527   0.66527   0.71309
 Alpha virt. eigenvalues --    0.71309   0.75561   1.02838   1.03489   1.03489
 Alpha virt. eigenvalues --    1.06956   1.06956   1.40018   1.54867   1.54867
 Alpha virt. eigenvalues --    1.72100   1.72360   1.72360   1.83687   1.88211
 Alpha virt. eigenvalues --    1.93792   1.93792   2.02790   2.08318   2.08318
 Alpha virt. eigenvalues --    2.14021   2.14021   2.22163   2.32954   2.32954
 Alpha virt. eigenvalues --    2.62690   2.62690   2.66823   2.66823   2.66924
 Alpha virt. eigenvalues --    2.68263   2.77949   2.95359   2.99168   2.99168
 Alpha virt. eigenvalues --    3.43649   3.56899   3.56899   3.83704   3.89615
 Alpha virt. eigenvalues --    3.89615   4.02220   4.02220   4.31121   4.35593
 Alpha virt. eigenvalues --    4.35593   4.55348   4.86745   4.92372   4.92372
 Alpha virt. eigenvalues --    5.49638   5.49638   5.51656   5.51656   5.54718
 Alpha virt. eigenvalues --    5.65188   5.85068   5.85068   5.99941   6.53138
 Alpha virt. eigenvalues --    6.53138   6.54106   6.73371   6.74597   6.75666
 Alpha virt. eigenvalues --    6.75666   6.84527   6.84966   6.84966   6.87683
 Alpha virt. eigenvalues --    6.87683   7.01128   7.18789   7.18789   7.40746
 Alpha virt. eigenvalues --    7.40746   7.41166   7.45584   7.45584   7.51376
 Alpha virt. eigenvalues --    7.58805   7.58805   7.80707   7.80707   7.83722
 Alpha virt. eigenvalues --    8.06193   8.07802   8.24901   8.24901   8.40288
 Alpha virt. eigenvalues --    8.40288   8.52435   8.62614   8.86904   8.86904
 Alpha virt. eigenvalues --    9.33594  10.02993  10.02993  10.39240  10.48425
 Alpha virt. eigenvalues --   10.48425  10.71228  10.71228  10.94247  11.31140
 Alpha virt. eigenvalues --   11.31140  11.52152  11.58187  11.91780  11.91780
 Alpha virt. eigenvalues --   12.15639  12.36966  12.83353  12.83353  13.54360
 Alpha virt. eigenvalues --   13.54360  14.07934  15.73389  15.73389  15.90802
 Alpha virt. eigenvalues --   48.18400 251.32962
          Condensed to atoms (all electrons):
               1          2          3          4
     1  O    7.350597   0.329473   0.329473   0.329473
     2  H    0.329473   0.246144  -0.010978  -0.010978
     3  H    0.329473  -0.010978   0.246144  -0.010978
     4  H    0.329473  -0.010978  -0.010978   0.246144
 Mulliken charges:
               1
     1  O   -0.339016
     2  H    0.446339
     3  H    0.446339
     4  H    0.446339
 Sum of Mulliken charges =   1.00000
 Mulliken charges with hydrogens summed into heavy atoms:
               1
     1  O    1.000000
 Electronic spatial extent (au):  <R**2>=             18.3288
 Charge=              1.0000 electrons
 Dipole moment (field-independent basis, Debye):
    X=             -0.0000    Y=             -0.0000    Z=             -1.4626  Tot=              1.4626
 Quadrupole moment (field-independent basis, Debye-Ang):
   XX=             -2.4691   YY=             -2.4691   ZZ=             -6.1894
   XY=             -0.0000   XZ=              0.0000   YZ=              0.0000
 Traceless Quadrupole moment (field-independent basis, Debye-Ang):
   XX=              1.2401   YY=              1.2401   ZZ=             -2.4801
   XY=             -0.0000   XZ=              0.0000   YZ=              0.0000
 Octapole moment (field-independent basis, Debye-Ang**2):
  XXX=             -0.0000  YYY=              1.7834  ZZZ=             -0.5660  XYY=              0.0000
  XXY=             -1.7834  XXZ=             -0.9134  XZZ=              0.0000  YZZ=              0.0000
  YYZ=             -0.9134  XYZ=              0.0000
 Hexadecapole moment (field-independent basis, Debye-Ang**3):
 XXXX=             -3.1398 YYYY=             -3.1398 ZZZZ=             -4.9399 XXXY=              0.0000
 XXXZ=              0.0000 YYYX=             -0.0000 YYYZ=             -0.4151 ZZZX=             -0.0000
 ZZZY=             -0.0000 XXYY=             -1.0466 XXZZ=             -1.6592 YYZZ=             -1.6592
 XXYZ=              0.4151 YYXZ=             -0.0000 ZZXY=              0.0000
 N-N= 1.394036953523D+01 E-N=-2.050118899583D+02  KE= 7.645792026718D+01
 PrsmSu:  requested number of processors reduced to:  21 ShMem   1 Linda.
 No NMR shielding tensors so no spin-rotation constants.
 Leave Link  601 at Sun Apr 18 05:10:42 2021, MaxMem=   104857600 cpu:             137.8 elap:               3.1
 (Enter /s/ls4/users/knvvv/bin/g16sse/l801.exe)
 DoSCS=F DFT=T ScalE2(SS,OS)=  1.000000  1.000000
 Range of M.O.s used for correlation:     1   147
 NBasis=   147 NAE=     5 NBE=     5 NFC=     0 NFV=     0
 NROrb=    147 NOA=     5 NOB=     5 NVA=   142 NVB=   142

 **** Warning!!: The largest alpha MO coefficient is  0.22276701D+02

 Leave Link  801 at Sun Apr 18 05:10:42 2021, MaxMem=   104857600 cpu:               3.5 elap:               0.1
 (Enter /s/ls4/users/knvvv/bin/g16sse/l914.exe)
 RHF ground state
 Doing stability rather than CIS.
 Two-electron integrals replicated using symmetry.
 MDV=   104857600 DFT=T DoStab=T Mixed=T DoRPA=F DoScal=F NonHer=F
 Making orbital integer symmetry assigments:
 Orbital symmetries:
       Occupied  (A1) (A1) (E) (E) (A1)
       Virtual   (A1) (E) (E) (A1) (E) (E) (A1) (E) (E) (E) (E)
                 (A1) (A2) (E) (E) (A1) (A1) (E) (E) (E) (E) (A1)
                 (A1) (E) (E) (E) (E) (A1) (E) (E) (A1) (E) (E)
                 (A2) (A2) (E) (E) (A1) (E) (E) (E) (E) (A1) (E)
                 (E) (E) (E) (E) (E) (A2) (A1) (A1) (A1) (E) (E)
                 (A1) (E) (E) (A1) (E) (E) (E) (E) (A2) (E) (E)
                 (A1) (A1) (E) (E) (E) (E) (E) (E) (A2) (A1) (E)
                 (E) (A2) (E) (E) (A1) (A2) (A1) (E) (E) (A1) (E)
                 (E) (E) (E) (A1) (E) (E) (E) (E) (A2) (E) (E)
                 (A1) (E) (E) (E) (E) (A1) (A1) (A2) (E) (E) (E)
                 (E) (A1) (A2) (E) (E) (A1) (E) (E) (A1) (E) (E)
                 (E) (E) (A1) (E) (E) (A1) (A2) (E) (E) (A1) (A2)
                 (E) (E) (E) (E) (A1) (E) (E) (A1) (A1) (A1)
    24 initial guesses have been made.
 Convergence on wavefunction:    0.001000000000000
 Davidson Disk Diagonalization:  ConvIn= 1.00D-03 SkipCon=T Conv= 1.00D-03.
 Max sub-space:  2000 roots to seek:    24 dimension of matrix:         1420
 Iteration     1 Dimension    24 NMult     0 NNew     24
 Estimated number of processors is:   20
 CISAX will form     1 AO SS matrices at one time.
 NMat=     1 NSing=     1 JSym2X= 2.
 FoFJK:  IHMeth= 1 ICntrl=       0 DoSepK=F KAlg= 0 I1Cent=           0 FoldK=F
 IRaf= 990000000 NMat=       1 IRICut=       1 DoRegI=T DoRafI=F ISym2E= 2 IDoP0=0 IntGTp=1.
 FoFCou: FMM=F IPFlag=           0 FMFlag=      100000 FMFlg1=           0
         NFxFlg=           0 DoJE=F BraDBF=F KetDBF=F FulRan=T
         wScrn=  0.000000 ICntrl=         0 IOpCl=  0 I1Cent=           0 NGrid=           0
         NMat0=    1 NMatS0=      1 NMatT0=    0 NMatD0=    1 NMtDS0=    0 NMtDT0=    0
 Integrals replicated using symmetry in FoFCou.
 CoulSu:  requested number of processors reduced to:  20 ShMem   1 Linda.
 NMat=     1 NSing=     1 JSym2X= 2.
 CoulSu:  requested number of processors reduced to:  20 ShMem   1 Linda.
 NMat=     1 NSing=     1 JSym2X= 2.
 CoulSu:  requested number of processors reduced to:  20 ShMem   1 Linda.
 NMat=     1 NSing=     1 JSym2X= 2.
 CoulSu:  requested number of processors reduced to:  20 ShMem   1 Linda.
 NMat=     1 NSing=     1 JSym2X= 2.
 CoulSu:  requested number of processors reduced to:  20 ShMem   1 Linda.
 NMat=     1 NSing=     1 JSym2X= 2.
 CoulSu:  requested number of processors reduced to:  20 ShMem   1 Linda.
 NMat=     1 NSing=     1 JSym2X= 2.
 CoulSu:  requested number of processors reduced to:  20 ShMem   1 Linda.
 NMat=     1 NSing=     1 JSym2X= 2.
 CoulSu:  requested number of processors reduced to:  20 ShMem   1 Linda.
 NMat=     1 NSing=     1 JSym2X= 2.
 CoulSu:  requested number of processors reduced to:  20 ShMem   1 Linda.
 NMat=     1 NSing=     1 JSym2X= 2.
 CoulSu:  requested number of processors reduced to:  20 ShMem   1 Linda.
 NMat=     1 NSing=     1 JSym2X= 2.
 CoulSu:  requested number of processors reduced to:  20 ShMem   1 Linda.
 NMat=     1 NSing=     1 JSym2X= 2.
 CoulSu:  requested number of processors reduced to:  20 ShMem   1 Linda.
 NMat=     1 NSing=     0 JSym2X= 2.
 CoulSu:  requested number of processors reduced to:  20 ShMem   1 Linda.
 NMat=     1 NSing=     0 JSym2X= 2.
 CoulSu:  requested number of processors reduced to:  20 ShMem   1 Linda.
 NMat=     1 NSing=     0 JSym2X= 2.
 CoulSu:  requested number of processors reduced to:  20 ShMem   1 Linda.
 NMat=     1 NSing=     0 JSym2X= 2.
 CoulSu:  requested number of processors reduced to:  20 ShMem   1 Linda.
 NMat=     1 NSing=     0 JSym2X= 2.
 CoulSu:  requested number of processors reduced to:  20 ShMem   1 Linda.
 NMat=     1 NSing=     0 JSym2X= 2.
 CoulSu:  requested number of processors reduced to:  20 ShMem   1 Linda.
 NMat=     1 NSing=     0 JSym2X= 2.
 CoulSu:  requested number of processors reduced to:  20 ShMem   1 Linda.
 NMat=     1 NSing=     0 JSym2X= 2.
 CoulSu:  requested number of processors reduced to:  20 ShMem   1 Linda.
 NMat=     1 NSing=     0 JSym2X= 2.
 CoulSu:  requested number of processors reduced to:  20 ShMem   1 Linda.
 NMat=     1 NSing=     0 JSym2X= 2.
 CoulSu:  requested number of processors reduced to:  20 ShMem   1 Linda.
 NMat=     1 NSing=     0 JSym2X= 2.
 CoulSu:  requested number of processors reduced to:  20 ShMem   1 Linda.
 NMat=     1 NSing=     0 JSym2X= 2.
 CoulSu:  requested number of processors reduced to:  20 ShMem   1 Linda.
 New state      1 was old state      2
 Excitation Energies [eV] at current iteration:
 Root      1 :    11.513749977390960
 Root      2 :    12.442431283479520
 Root      3 :    13.867004383903690
 Root      4 :    13.867019237062760
 Root      5 :    14.593042180632040
 Root      6 :    14.593055269022880
 Root      7 :    16.343511397875740
 Root      8 :    16.343546779819850
 Root      9 :    17.578965518545500
 Root     10 :    17.579002334200870
 Root     11 :    18.068735236347140
 Root     12 :    18.068747856319180
 Root     13 :    18.070078304957590
 Root     14 :    18.200472593550310
 Root     15 :    18.200484817292240
 Root     16 :    18.386539326889420
 Root     17 :    18.401390349871160
 Root     18 :    18.831906331453920
 Root     19 :    18.832003123917030
 Root     20 :    19.653854163740690
 Root     21 :    19.701936999977490
 Root     22 :    20.125462640272550
 Root     23 :    20.125561019619400
 Root     24 :    28.680839466301770
 Iteration     2 Dimension    48 NMult    24 NNew     24
 Estimated number of processors is:   20
 CISAX will form     1 AO SS matrices at one time.
 NMat=     1 NSing=     1 JSym2X= 2.
 CoulSu:  requested number of processors reduced to:  20 ShMem   1 Linda.
 NMat=     1 NSing=     1 JSym2X= 2.
 CoulSu:  requested number of processors reduced to:  20 ShMem   1 Linda.
 NMat=     1 NSing=     1 JSym2X= 2.
 CoulSu:  requested number of processors reduced to:  20 ShMem   1 Linda.
 NMat=     1 NSing=     1 JSym2X= 2.
 CoulSu:  requested number of processors reduced to:  20 ShMem   1 Linda.
 NMat=     1 NSing=     1 JSym2X= 2.
 CoulSu:  requested number of processors reduced to:  20 ShMem   1 Linda.
 NMat=     1 NSing=     1 JSym2X= 2.
 CoulSu:  requested number of processors reduced to:  20 ShMem   1 Linda.
 NMat=     1 NSing=     1 JSym2X= 2.
 CoulSu:  requested number of processors reduced to:  20 ShMem   1 Linda.
 NMat=     1 NSing=     1 JSym2X= 2.
 CoulSu:  requested number of processors reduced to:  20 ShMem   1 Linda.
 NMat=     1 NSing=     1 JSym2X= 2.
 CoulSu:  requested number of processors reduced to:  20 ShMem   1 Linda.
 NMat=     1 NSing=     1 JSym2X= 2.
 CoulSu:  requested number of processors reduced to:  20 ShMem   1 Linda.
 NMat=     1 NSing=     1 JSym2X= 2.
 CoulSu:  requested number of processors reduced to:  20 ShMem   1 Linda.
 NMat=     1 NSing=     1 JSym2X= 2.
 CoulSu:  requested number of processors reduced to:  20 ShMem   1 Linda.
 NMat=     1 NSing=     0 JSym2X= 2.
 CoulSu:  requested number of processors reduced to:  20 ShMem   1 Linda.
 NMat=     1 NSing=     0 JSym2X= 2.
 CoulSu:  requested number of processors reduced to:  20 ShMem   1 Linda.
 NMat=     1 NSing=     0 JSym2X= 2.
 CoulSu:  requested number of processors reduced to:  20 ShMem   1 Linda.
 NMat=     1 NSing=     0 JSym2X= 2.
 CoulSu:  requested number of processors reduced to:  20 ShMem   1 Linda.
 NMat=     1 NSing=     0 JSym2X= 2.
 CoulSu:  requested number of processors reduced to:  20 ShMem   1 Linda.
 NMat=     1 NSing=     0 JSym2X= 2.
 CoulSu:  requested number of processors reduced to:  20 ShMem   1 Linda.
 NMat=     1 NSing=     0 JSym2X= 2.
 CoulSu:  requested number of processors reduced to:  20 ShMem   1 Linda.
 NMat=     1 NSing=     0 JSym2X= 2.
 CoulSu:  requested number of processors reduced to:  20 ShMem   1 Linda.
 NMat=     1 NSing=     0 JSym2X= 2.
 CoulSu:  requested number of processors reduced to:  20 ShMem   1 Linda.
 NMat=     1 NSing=     0 JSym2X= 2.
 CoulSu:  requested number of processors reduced to:  20 ShMem   1 Linda.
 NMat=     1 NSing=     0 JSym2X= 2.
 CoulSu:  requested number of processors reduced to:  20 ShMem   1 Linda.
 NMat=     1 NSing=     0 JSym2X= 2.
 CoulSu:  requested number of processors reduced to:  20 ShMem   1 Linda.
 Root      1 not converged, maximum delta is    0.158177904731867
 Excitation Energies [eV] at current iteration:
 Root      1 :    10.748736316103160   Change is   -0.765013661287798
 Root      2 :    12.178843649629360   Change is   -0.263587633850154
 Root      3 :    13.098839675621180   Change is   -0.768164708282513
 Root      4 :    13.098894159179500   Change is   -0.768125077883264
 Root      5 :    14.175392169821170   Change is   -0.417650010810875
 Root      6 :    14.175419780923630   Change is   -0.417635488099249
 Root      7 :    15.197461344292140   Change is   -1.146050053583600
 Root      8 :    15.197567757317490   Change is   -1.145979022502359
 Root      9 :    15.641392090606780   Change is   -2.745147236282640
 Root     10 :    17.194930068613890   Change is   -0.875148236343709
 Root     11 :    17.384616075780590   Change is   -0.194349442764909
 Root     12 :    17.384658603435320   Change is   -0.194343730765548
 Root     13 :    17.548722947202930   Change is   -1.283183384251000
 Root     14 :    17.548886879107400   Change is   -1.283116244809628
 Root     15 :    17.985814696215310   Change is   -0.415575653655842
 Root     16 :    17.989985878638250   Change is   -0.078761977680939
 Root     17 :    17.990023759580660   Change is   -0.078711476766484
 Root     18 :    17.992281482993620   Change is   -0.208191110556688
 Root     19 :    17.992291623320210   Change is   -0.208193193972030
 Root     20 :    19.218104445023940   Change is   -0.435749718716753
 Root     21 :    19.361211870427400   Change is   -0.340725129550089
 Root     22 :    19.525479661196470   Change is   -0.599982979076079
 Root     23 :    19.525630152893830   Change is   -0.599930866725566
 Root     24 :    23.202620283552010   Change is   -5.478219182749757
 Iteration     3 Dimension    54 NMult    48 NNew      6
 Estimated number of processors is:   20
 CISAX will form     1 AO SS matrices at one time.
 NMat=     1 NSing=     1 JSym2X= 2.
 CoulSu:  requested number of processors reduced to:  20 ShMem   1 Linda.
 NMat=     1 NSing=     1 JSym2X= 2.
 CoulSu:  requested number of processors reduced to:  20 ShMem   1 Linda.
 NMat=     1 NSing=     1 JSym2X= 2.
 CoulSu:  requested number of processors reduced to:  20 ShMem   1 Linda.
 NMat=     1 NSing=     0 JSym2X= 2.
 CoulSu:  requested number of processors reduced to:  20 ShMem   1 Linda.
 NMat=     1 NSing=     0 JSym2X= 2.
 CoulSu:  requested number of processors reduced to:  20 ShMem   1 Linda.
 NMat=     1 NSing=     0 JSym2X= 2.
 CoulSu:  requested number of processors reduced to:  20 ShMem   1 Linda.
 Root      1 not converged, maximum delta is    0.006275963890119
 Excitation Energies [eV] at current iteration:
 Root      1 :    10.734750644143250   Change is   -0.013985671959917
 Root      2 :    12.152226879450160   Change is   -0.026616770179198
 Root      3 :    13.085728295684720   Change is   -0.013111379936458
 Root      4 :    13.085784042059710   Change is   -0.013110117119792
 Root      5 :    14.154607187136550   Change is   -0.020784982684618
 Root      6 :    14.154636284195870   Change is   -0.020783496727757
 Iteration     4 Dimension    60 NMult    54 NNew      6
 Estimated number of processors is:   20
 CISAX will form     1 AO SS matrices at one time.
 NMat=     1 NSing=     1 JSym2X= 2.
 CoulSu:  requested number of processors reduced to:  20 ShMem   1 Linda.
 NMat=     1 NSing=     1 JSym2X= 2.
 CoulSu:  requested number of processors reduced to:  20 ShMem   1 Linda.
 NMat=     1 NSing=     1 JSym2X= 2.
 CoulSu:  requested number of processors reduced to:  20 ShMem   1 Linda.
 NMat=     1 NSing=     0 JSym2X= 2.
 CoulSu:  requested number of processors reduced to:  20 ShMem   1 Linda.
 NMat=     1 NSing=     0 JSym2X= 2.
 CoulSu:  requested number of processors reduced to:  20 ShMem   1 Linda.
 NMat=     1 NSing=     0 JSym2X= 2.
 CoulSu:  requested number of processors reduced to:  20 ShMem   1 Linda.
 Root      1 not converged, maximum delta is    0.002175090596759
 Excitation Energies [eV] at current iteration:
 Root      1 :    10.734389767537690   Change is   -0.000360876605559
 Root      2 :    12.151504454551160   Change is   -0.000722424899002
 Root      3 :    13.085375568837120   Change is   -0.000352726847595
 Root      4 :    13.085431335417940   Change is   -0.000352706641773
 Root      5 :    14.154437823282690   Change is   -0.000169363853861
 Root      6 :    14.154466941396720   Change is   -0.000169342799150
 Iteration     5 Dimension    66 NMult    60 NNew      6
 Estimated number of processors is:   20
 CISAX will form     1 AO SS matrices at one time.
 NMat=     1 NSing=     1 JSym2X= 2.
 CoulSu:  requested number of processors reduced to:  20 ShMem   1 Linda.
 NMat=     1 NSing=     1 JSym2X= 2.
 CoulSu:  requested number of processors reduced to:  20 ShMem   1 Linda.
 NMat=     1 NSing=     1 JSym2X= 2.
 CoulSu:  requested number of processors reduced to:  20 ShMem   1 Linda.
 NMat=     1 NSing=     0 JSym2X= 2.
 CoulSu:  requested number of processors reduced to:  20 ShMem   1 Linda.
 NMat=     1 NSing=     0 JSym2X= 2.
 CoulSu:  requested number of processors reduced to:  20 ShMem   1 Linda.
 NMat=     1 NSing=     0 JSym2X= 2.
 CoulSu:  requested number of processors reduced to:  20 ShMem   1 Linda.
 Root      1 has converged.
 Excitation Energies [eV] at current iteration:
 Root      1 :    10.734382921190700   Change is   -0.000006846346984
 Root      2 :    12.151484652608920   Change is   -0.000019801942244
 Root      3 :    13.085370941401890   Change is   -0.000004627435230
 Root      4 :    13.085426710495700   Change is   -0.000004624922231
 Root      5 :    14.154433451611480   Change is   -0.000004371671206
 Root      6 :    14.154462570065920   Change is   -0.000004371330804
 Convergence achieved on expansion vectors.
 ***********************************************************************
 Stability analysis using <AA,BB:AA,BB> singles matrix:
 ***********************************************************************
 1PDM for each excited state written to RWF  633
 Ground to excited state transition densities written to RWF  633

 Eigenvectors of the stability matrix:
 
 Eigenvector   1:      Triplet-A1   Eigenvalue= 0.3944813  <S**2>=2.000
       5 ->  6         0.67776
       5 -> 12         0.16444
 The wavefunction is stable under the perturbations considered.
 Leave Link  914 at Sun Apr 18 05:12:56 2021, MaxMem=   104857600 cpu:            5327.5 elap:             133.8
 (Enter /s/ls4/users/knvvv/bin/g16sse/l508.exe)
 The wavefunction is already stable.
 Leave Link  508 at Sun Apr 18 05:12:56 2021, MaxMem=   104857600 cpu:               2.2 elap:               0.1
 (Enter /s/ls4/users/knvvv/bin/g16sse/l601.exe)
 Copying SCF densities to generalized density rwf, IOpCl= 0 IROHF=0.

 **********************************************************************

            Population analysis using the SCF density.

 **********************************************************************

 Orbital symmetries:
       Occupied  (A1) (A1) (E) (E) (A1)
       Virtual   (A1) (E) (E) (A1) (E) (E) (A1) (E) (E) (E) (E)
                 (A1) (A2) (E) (E) (A1) (A1) (E) (E) (E) (E) (A1)
                 (A1) (E) (E) (E) (E) (A1) (E) (E) (A1) (E) (E)
                 (A2) (A2) (E) (E) (A1) (E) (E) (E) (E) (A1) (E)
                 (E) (E) (E) (E) (E) (A2) (A1) (A1) (A1) (E) (E)
                 (A1) (E) (E) (A1) (E) (E) (E) (E) (A2) (E) (E)
                 (A1) (A1) (E) (E) (E) (E) (E) (E) (A2) (A1) (E)
                 (E) (A2) (E) (E) (A1) (A2) (A1) (E) (E) (A1) (E)
                 (E) (E) (E) (A1) (E) (E) (E) (E) (A2) (E) (E)
                 (A1) (E) (E) (E) (E) (A1) (A1) (A2) (E) (E) (E)
                 (E) (A1) (A2) (E) (E) (A1) (E) (E) (A1) (E) (E)
                 (E) (E) (A1) (E) (E) (A1) (A2) (E) (E) (A1) (A2)
                 (E) (E) (E) (E) (A1) (E) (E) (A1) (A1) (A1)
 The electronic state is 1-A1.
 Alpha  occ. eigenvalues --  -20.05771  -1.57515  -1.01812  -1.01812  -0.83533
 Alpha virt. eigenvalues --   -0.23953  -0.15262  -0.15262  -0.01726  -0.01110
 Alpha virt. eigenvalues --   -0.01110   0.04459   0.13369   0.13369   0.17261
 Alpha virt. eigenvalues --    0.17261   0.28794   0.47606   0.51152   0.51152
 Alpha virt. eigenvalues --    0.53273   0.58339   0.66527   0.66527   0.71309
 Alpha virt. eigenvalues --    0.71309   0.75561   1.02838   1.03489   1.03489
 Alpha virt. eigenvalues --    1.06956   1.06956   1.40018   1.54867   1.54867
 Alpha virt. eigenvalues --    1.72100   1.72360   1.72360   1.83687   1.88211
 Alpha virt. eigenvalues --    1.93792   1.93792   2.02790   2.08318   2.08318
 Alpha virt. eigenvalues --    2.14021   2.14021   2.22163   2.32954   2.32954
 Alpha virt. eigenvalues --    2.62690   2.62690   2.66823   2.66823   2.66924
 Alpha virt. eigenvalues --    2.68263   2.77949   2.95359   2.99168   2.99168
 Alpha virt. eigenvalues --    3.43649   3.56899   3.56899   3.83704   3.89615
 Alpha virt. eigenvalues --    3.89615   4.02220   4.02220   4.31121   4.35593
 Alpha virt. eigenvalues --    4.35593   4.55348   4.86745   4.92372   4.92372
 Alpha virt. eigenvalues --    5.49638   5.49638   5.51656   5.51656   5.54718
 Alpha virt. eigenvalues --    5.65188   5.85068   5.85068   5.99941   6.53138
 Alpha virt. eigenvalues --    6.53138   6.54106   6.73371   6.74597   6.75666
 Alpha virt. eigenvalues --    6.75666   6.84527   6.84966   6.84966   6.87683
 Alpha virt. eigenvalues --    6.87683   7.01128   7.18789   7.18789   7.40746
 Alpha virt. eigenvalues --    7.40746   7.41166   7.45584   7.45584   7.51376
 Alpha virt. eigenvalues --    7.58805   7.58805   7.80707   7.80707   7.83722
 Alpha virt. eigenvalues --    8.06193   8.07802   8.24901   8.24901   8.40288
 Alpha virt. eigenvalues --    8.40288   8.52435   8.62614   8.86904   8.86904
 Alpha virt. eigenvalues --    9.33594  10.02993  10.02993  10.39240  10.48425
 Alpha virt. eigenvalues --   10.48425  10.71228  10.71228  10.94247  11.31140
 Alpha virt. eigenvalues --   11.31140  11.52152  11.58187  11.91780  11.91780
 Alpha virt. eigenvalues --   12.15639  12.36966  12.83353  12.83353  13.54360
 Alpha virt. eigenvalues --   13.54360  14.07934  15.73389  15.73389  15.90802
 Alpha virt. eigenvalues --   48.18400 251.32962
          Condensed to atoms (all electrons):
               1          2          3          4
     1  O    7.350597   0.329473   0.329473   0.329473
     2  H    0.329473   0.246144  -0.010978  -0.010978
     3  H    0.329473  -0.010978   0.246144  -0.010978
     4  H    0.329473  -0.010978  -0.010978   0.246144
 Mulliken charges:
               1
     1  O   -0.339016
     2  H    0.446339
     3  H    0.446339
     4  H    0.446339
 Sum of Mulliken charges =   1.00000
 Mulliken charges with hydrogens summed into heavy atoms:
               1
     1  O    1.000000
 Electronic spatial extent (au):  <R**2>=             18.3288
 Charge=              1.0000 electrons
 Dipole moment (field-independent basis, Debye):
    X=             -0.0000    Y=             -0.0000    Z=             -1.4626  Tot=              1.4626
 Quadrupole moment (field-independent basis, Debye-Ang):
   XX=             -2.4691   YY=             -2.4691   ZZ=             -6.1894
   XY=             -0.0000   XZ=              0.0000   YZ=              0.0000
 Traceless Quadrupole moment (field-independent basis, Debye-Ang):
   XX=              1.2401   YY=              1.2401   ZZ=             -2.4801
   XY=             -0.0000   XZ=              0.0000   YZ=              0.0000
 Octapole moment (field-independent basis, Debye-Ang**2):
  XXX=             -0.0000  YYY=              1.7834  ZZZ=             -0.5660  XYY=              0.0000
  XXY=             -1.7834  XXZ=             -0.9134  XZZ=              0.0000  YZZ=              0.0000
  YYZ=             -0.9134  XYZ=              0.0000
 Hexadecapole moment (field-independent basis, Debye-Ang**3):
 XXXX=             -3.1398 YYYY=             -3.1398 ZZZZ=             -4.9399 XXXY=              0.0000
 XXXZ=              0.0000 YYYX=             -0.0000 YYYZ=             -0.4151 ZZZX=             -0.0000
 ZZZY=             -0.0000 XXYY=             -1.0466 XXZZ=             -1.6592 YYZZ=             -1.6592
 XXYZ=              0.4151 YYXZ=             -0.0000 ZZXY=              0.0000
 N-N= 1.394036953523D+01 E-N=-2.050118899583D+02  KE= 7.645792026718D+01
 PrsmSu:  requested number of processors reduced to:  21 ShMem   1 Linda.
 No NMR shielding tensors so no spin-rotation constants.
 Leave Link  601 at Sun Apr 18 05:12:59 2021, MaxMem=   104857600 cpu:             135.8 elap:               3.0
 (Enter /s/ls4/users/knvvv/bin/g16sse/l9999.exe)

 Test job not archived.
 1\1\GINC-N178\Stability\RM062X\def2QZVP\H3O1(1+)\KNVVV\18-Apr-2021\0\\
 #P M062X/Def2QZVP Integral=UltraFineGrid SCF=NoSymm Stable=(RExt, Opt)
  IOp(1/33=1)\\Database calculations.\\1,1\O,0,0.,0.,-0.2080105067\H,0,
 0.4697565871,0.8136422761,0.0693368356\H,0,0.4697565871,-0.8136422761,
 0.0693368356\H,0,-0.9395131743,0.,0.0693368356\\Version=ES64L-G16RevA.
 03\State=1-A1\HF=-76.7095103\RMSD=8.924e-09\Dipole=0.,0.,0.5754252\Qua
 drupole=0.9219622,0.9219622,-1.8439245,0.,0.,0.\PG=C03V [C3(O1),3SGV(H
 1)]\\@


 MY GROUP MEETINGS AREN'T VERY STRUCTURED.
     -- PROF. M. S. GORDON, OCT. 5, 1984
 Job cpu time:       0 days  3 hours  5 minutes 39.1 seconds.
 Elapsed time:       0 days  0 hours  4 minutes 20.4 seconds.
 File lengths (MBytes):  RWF=     61 Int=      0 D2E=      0 Chk=      3 Scr=      1
 Normal termination of Gaussian 16 at Sun Apr 18 05:12:59 2021.
