 Entering Gaussian System, Link 0=/s/ls4/users/knvvv/bin/g16sse/g16
 Input=data/database/M062X--MG3S--Z_022_MG3S_Cl.gjf
 Output=data/database/M062X--MG3S--Z_022_MG3S_Cl.log
 Initial command:
 /s/ls4/users/knvvv/bin/g16sse/l1.exe "/s/ls4/users/knvvv/bin/scratch/Gau-32680.inp" -scrdir="/s/ls4/users/knvvv/bin/scratch/"
 Entering Link 1 = /s/ls4/users/knvvv/bin/g16sse/l1.exe PID=     32681.
  
 Copyright (c) 1988,1990,1992,1993,1995,1998,2003,2009,2016,
            Gaussian, Inc.  All Rights Reserved.
  
 This is part of the Gaussian(R) 16 program.  It is based on
 the Gaussian(R) 09 system (copyright 2009, Gaussian, Inc.),
 the Gaussian(R) 03 system (copyright 2003, Gaussian, Inc.),
 the Gaussian(R) 98 system (copyright 1998, Gaussian, Inc.),
 the Gaussian(R) 94 system (copyright 1995, Gaussian, Inc.),
 the Gaussian 92(TM) system (copyright 1992, Gaussian, Inc.),
 the Gaussian 90(TM) system (copyright 1990, Gaussian, Inc.),
 the Gaussian 88(TM) system (copyright 1988, Gaussian, Inc.),
 the Gaussian 86(TM) system (copyright 1986, Carnegie Mellon
 University), and the Gaussian 82(TM) system (copyright 1983,
 Carnegie Mellon University). Gaussian is a federally registered
 trademark of Gaussian, Inc.
  
 This software contains proprietary and confidential information,
 including trade secrets, belonging to Gaussian, Inc.
  
 This software is provided under written license and may be
 used, copied, transmitted, or stored only in accord with that
 written license.
  
 The following legend is applicable only to US Government
 contracts under FAR:
  
                    RESTRICTED RIGHTS LEGEND
  
 Use, reproduction and disclosure by the US Government is
 subject to restrictions as set forth in subparagraphs (a)
 and (c) of the Commercial Computer Software - Restricted
 Rights clause in FAR 52.227-19.
  
 Gaussian, Inc.
 340 Quinnipiac St., Bldg. 40, Wallingford CT 06492
  
  
 ---------------------------------------------------------------
 Warning -- This program may not be used in any manner that
 competes with the business of Gaussian, Inc. or will provide
 assistance to any competitor of Gaussian, Inc.  The licensee
 of this program is prohibited from giving any competitor of
 Gaussian, Inc. access to this program.  By using this program,
 the user acknowledges that Gaussian, Inc. is engaged in the
 business of creating and licensing software in the field of
 computational chemistry and represents and warrants to the
 licensee that it is not a competitor of Gaussian, Inc. and that
 it will not use this program in any manner prohibited above.
 ---------------------------------------------------------------
  

 Cite this work as:
 Gaussian 16, Revision A.03,
 M. J. Frisch, G. W. Trucks, H. B. Schlegel, G. E. Scuseria, 
 M. A. Robb, J. R. Cheeseman, G. Scalmani, V. Barone, 
 G. A. Petersson, H. Nakatsuji, X. Li, M. Caricato, A. V. Marenich, 
 J. Bloino, B. G. Janesko, R. Gomperts, B. Mennucci, H. P. Hratchian, 
 J. V. Ortiz, A. F. Izmaylov, J. L. Sonnenberg, D. Williams-Young, 
 F. Ding, F. Lipparini, F. Egidi, J. Goings, B. Peng, A. Petrone, 
 T. Henderson, D. Ranasinghe, V. G. Zakrzewski, J. Gao, N. Rega, 
 G. Zheng, W. Liang, M. Hada, M. Ehara, K. Toyota, R. Fukuda, 
 J. Hasegawa, M. Ishida, T. Nakajima, Y. Honda, O. Kitao, H. Nakai, 
 T. Vreven, K. Throssell, J. A. Montgomery, Jr., J. E. Peralta, 
 F. Ogliaro, M. J. Bearpark, J. J. Heyd, E. N. Brothers, K. N. Kudin, 
 V. N. Staroverov, T. A. Keith, R. Kobayashi, J. Normand, 
 K. Raghavachari, A. P. Rendell, J. C. Burant, S. S. Iyengar, 
 J. Tomasi, M. Cossi, J. M. Millam, M. Klene, C. Adamo, R. Cammi, 
 J. W. Ochterski, R. L. Martin, K. Morokuma, O. Farkas, 
 J. B. Foresman, and D. J. Fox, Gaussian, Inc., Wallingford CT, 2016.
 
 ******************************************
 Gaussian 16:  ES64L-G16RevA.03 25-Dec-2016
                18-Apr-2021 
 ******************************************
 %RWF=temp12_94003,70GB
 %nprocshared=48
 Will use up to   48 processors via shared memory.
 Default route: MaxDisk=80GB
 ----------------------------------------------------------------------
 #P M062X/GEN Integral=UltraFineGrid SCF=NoSymm Stable=(RExt, Opt) IOp(
 1/33=1)
 ----------------------------------------------------------------------
 1/33=1,38=1,172=1/1;
 2/12=2,17=6,18=5,40=1/2;
 3/5=7,11=2,25=1,30=1,74=-55,75=-5/1,2,3;
 4/9=2/1;
 5/5=2,38=5/2;
 6/7=2,8=2,9=2,10=2,28=1/1;
 8/6=1,10=90,11=11/1;
 9/8=-3,42=1,46=1/14;
 5/5=2,8=3,17=40,38=5/8(-2);
 6/7=2,8=2,9=2,10=2,28=1/1;
 99/5=1,9=1/99;
 Leave Link    1 at Sun Apr 18 10:11:57 2021, MaxMem=           0 cpu:               8.2 elap:               0.2
 (Enter /s/ls4/users/knvvv/bin/g16sse/l101.exe)
 ONIOM data not found on unit 2.
 ----------------------
 Database calculations.
 ----------------------
 TstMul:  ICh=     0
 TstMul:  Mul=     2
 TstMul:  ICh=     0
 TstMul:  Mul=     2
 Symbolic Z-matrix:
 Charge =  0 Multiplicity = 2
 Cl                    0.        0.        0. 
 
 RdStrC is calling ZToCFu for IStruc=1 NZ=     1.
 PrtBox:  NBox=     1 Levels=  0 BoxLen=    8.00 SMaxX=        0.00
          Shift=            0.000000            0.000000            0.000000
 Box      1 Number                   0 centers from      1 to      1:
 After GenITR:
 ITRead=  0
 MicOpt= -1
 ITRead=  0
 MicOpt= -1
 NAtoms=      1 NQM=        1 NQMF=       0 NMMI=      0 NMMIF=      0
                NMic=       0 NMicF=      0.
                    Isotopes and Nuclear Properties:
 (Nuclear quadrupole moments (NQMom) in fm**2, nuclear magnetic moments (NMagM)
  in nuclear magnetons)

  Atom         1
 IAtWgt=          35
 AtmWgt=  34.9688527
 NucSpn=           3
 AtZEff=  -0.0000000
 NQMom=   -8.1650000
 NMagM=    0.8218740
 AtZNuc=  17.0000000
 No MM parameters found.
 Leave Link  101 at Sun Apr 18 10:11:57 2021, MaxMem=   104857600 cpu:               8.0 elap:               0.2
 (Enter /s/ls4/users/knvvv/bin/g16sse/l202.exe)
                          Input orientation:                          
 ---------------------------------------------------------------------
 Center     Atomic      Atomic             Coordinates (Angstroms)
 Number     Number       Type             X           Y           Z
 ---------------------------------------------------------------------
      1         17           0        0.000000    0.000000    0.000000
 ---------------------------------------------------------------------
 Stoichiometry    Cl(2)
 Framework group  OH[O(Cl)]
 Deg. of freedom     0
 Full point group                 OH      NOp  48
 Largest Abelian subgroup         D2H     NOp   8
 Largest concise Abelian subgroup C1      NOp   1
                         Standard orientation:                         
 ---------------------------------------------------------------------
 Center     Atomic      Atomic             Coordinates (Angstroms)
 Number     Number       Type             X           Y           Z
 ---------------------------------------------------------------------
      1         17           0        0.000000    0.000000    0.000000
 ---------------------------------------------------------------------
 Leave Link  202 at Sun Apr 18 10:11:58 2021, MaxMem=   104857600 cpu:              33.2 elap:               0.7
 (Enter /s/ls4/users/knvvv/bin/g16sse/l301.exe)
 General basis read from cards:  (5D, 7F)
 Centers:       1
 S 6 1.00
     Exponent=  1.0581900000D+05 Coefficients=  7.4236270000D-04
     Exponent=  1.5872000000D+04 Coefficients=  5.7473180000D-03
     Exponent=  3.6196500000D+03 Coefficients=  2.9648760000D-02
     Exponent=  1.0308000000D+03 Coefficients=  1.1789980000D-01
     Exponent=  3.3990000000D+02 Coefficients=  3.6485320000D-01
     Exponent=  1.2453000000D+02 Coefficients=  5.8169680000D-01
 S 3 1.00
     Exponent=  1.2453000000D+02 Coefficients=  1.3704430000D-01
     Exponent=  4.9510000000D+01 Coefficients=  6.2313800000D-01
     Exponent=  2.0800000000D+01 Coefficients=  2.9032790000D-01
 S 1 1.00
     Exponent=  6.4600000000D+00 Coefficients=  1.0000000000D+00
 S 1 1.00
     Exponent=  2.5200000000D+00 Coefficients=  1.0000000000D+00
 S 1 1.00
     Exponent=  5.3000000000D-01 Coefficients=  1.0000000000D+00
 S 1 1.00
     Exponent=  1.9000000000D-01 Coefficients=  1.0000000000D+00
 S 1 1.00
     Exponent=  4.8300000000D-02 Coefficients=  1.0000000000D+00
 P 4 1.00
     Exponent=  5.8978000000D+02 Coefficients=  7.8733320000D-03
     Exponent=  1.3985000000D+02 Coefficients=  6.1554600000D-02
     Exponent=  4.4790000000D+01 Coefficients=  2.7425140000D-01
     Exponent=  1.6610000000D+01 Coefficients=  7.4989940000D-01
 P 2 1.00
     Exponent=  6.5900000000D+00 Coefficients=  6.1476400000D-01
     Exponent=  2.7100000000D+00 Coefficients=  4.4134160000D-01
 P 1 1.00
     Exponent=  9.5000000000D-01 Coefficients=  1.0000000000D+00
 P 1 1.00
     Exponent=  3.5000000000D-01 Coefficients=  1.0000000000D+00
 P 1 1.00
     Exponent=  1.2000000000D-01 Coefficients=  1.0000000000D+00
 P 1 1.00
     Exponent=  4.8300000000D-02 Coefficients=  1.0000000000D+00
 D 1 1.00
     Exponent=  3.0000000000D+00 Coefficients=  1.0000000000D+00
 D 1 1.00
     Exponent=  7.5000000000D-01 Coefficients=  1.0000000000D+00
 D 1 1.00
     Exponent=  1.8750000000D-01 Coefficients=  1.0000000000D+00
 F 1 1.00
     Exponent=  1.4000000000D+00 Coefficients=  1.0000000000D+00
 F 1 1.00
     Exponent=  3.5000000000D-01 Coefficients=  1.0000000000D+00
 ****
 Ernie: Thresh=  0.10000D-02 Tol=  0.10000D-05 Strict=F.
 There are    16 symmetry adapted cartesian basis functions of AG  symmetry.
 There are     3 symmetry adapted cartesian basis functions of B1G symmetry.
 There are     3 symmetry adapted cartesian basis functions of B2G symmetry.
 There are     3 symmetry adapted cartesian basis functions of B3G symmetry.
 There are     2 symmetry adapted cartesian basis functions of AU  symmetry.
 There are    12 symmetry adapted cartesian basis functions of B1U symmetry.
 There are    12 symmetry adapted cartesian basis functions of B2U symmetry.
 There are    12 symmetry adapted cartesian basis functions of B3U symmetry.
 There are    13 symmetry adapted basis functions of AG  symmetry.
 There are     3 symmetry adapted basis functions of B1G symmetry.
 There are     3 symmetry adapted basis functions of B2G symmetry.
 There are     3 symmetry adapted basis functions of B3G symmetry.
 There are     2 symmetry adapted basis functions of AU  symmetry.
 There are    10 symmetry adapted basis functions of B1U symmetry.
 There are    10 symmetry adapted basis functions of B2U symmetry.
 There are    10 symmetry adapted basis functions of B3U symmetry.
    54 basis functions,    82 primitive gaussians,    63 cartesian basis functions
     9 alpha electrons        8 beta electrons
       nuclear repulsion energy         0.0000000000 Hartrees.
 IExCor= 4336 DFT=T Ex+Corr=M062X ExCW=0 ScaHFX=  0.540000
 ScaDFX=  1.000000  1.000000  1.000000  1.000000 ScalE2=  1.000000  1.000000
 IRadAn=      5 IRanWt=     -1 IRanGd=            0 ICorTp=0 IEmpDi=  4
 NAtoms=    1 NActive=    1 NUniq=    1 SFac= 1.00D+00 NAtFMM=   60 NAOKFM=F Big=F
 Integral buffers will be    131072 words long.
 Raffenetti 2 integral format.
 Two-electron integral symmetry is turned on.
 Leave Link  301 at Sun Apr 18 10:11:58 2021, MaxMem=   104857600 cpu:               7.3 elap:               0.2
 (Enter /s/ls4/users/knvvv/bin/g16sse/l302.exe)
 NPDir=0 NMtPBC=     1 NCelOv=     1 NCel=       1 NClECP=     1 NCelD=      1
         NCelK=      1 NCelE2=     1 NClLst=     1 CellRange=     0.0.
 One-electron integrals computed using PRISM.
 One-electron integral symmetry used in STVInt
 PrsmSu:  requested number of processors reduced to:  13 ShMem   1 Linda.
 NBasis=    54 RedAO= T EigKep=  3.27D-02  NBF=    13     3     3     3     2    10    10    10
 NBsUse=    54 1.00D-06 EigRej= -1.00D+00 NBFU=    13     3     3     3     2    10    10    10
 Precomputing XC quadrature grid using
 IXCGrd= 4 IRadAn=           5 IRanWt=          -1 IRanGd=           0 AccXCQ= 0.00D+00.
 Generated NRdTot=       0 NPtTot=           0 NUsed=           0 NTot=          32
 NSgBfM=    63    63    63    63    63 MxSgAt=     1 MxSgA2=     1.
 Leave Link  302 at Sun Apr 18 10:12:06 2021, MaxMem=   104857600 cpu:             358.3 elap:               7.6
 (Enter /s/ls4/users/knvvv/bin/g16sse/l303.exe)
 DipDrv:  MaxL=1.
 Leave Link  303 at Sun Apr 18 10:12:06 2021, MaxMem=   104857600 cpu:              10.5 elap:               0.2
 (Enter /s/ls4/users/knvvv/bin/g16sse/l401.exe)
 SCF N**3 symmetry information disabled.
 ExpMin= 4.83D-02 ExpMax= 1.06D+05 ExpMxC= 3.62D+03 IAcc=3 IRadAn=         5 AccDes= 0.00D+00
 Harris functional with IExCor= 1009 and IRadAn=       5 diagonalized for initial guess.
 HarFok:  IExCor= 1009 AccDes= 0.00D+00 IRadAn=         5 IDoV= 1 UseB2=F ITyADJ=14
 ICtDFT=  3500011 ScaDFX=  1.000000  1.000000  1.000000  1.000000
 FoFCou: FMM=F IPFlag=           0 FMFlag=      100000 FMFlg1=           0
         NFxFlg=           0 DoJE=T BraDBF=F KetDBF=T FulRan=T
         wScrn=  0.000000 ICntrl=       500 IOpCl=  0 I1Cent=   200000004 NGrid=           0
         NMat0=    1 NMatS0=      1 NMatT0=    0 NMatD0=    1 NMtDS0=    0 NMtDT0=    0
 Petite list used in FoFCou.
 Harris En= -459.877950006648    
 JPrj=0 DoOrth=F DoCkMO=F.
 Initial guess orbital symmetries:
 Alpha Orbitals:
       Occupied  (A1G) (A1G) (T1U) (T1U) (T1U) (A1G) (T1U) (T1U)
                 (T1U)
       Virtual   (A1G) (T1U) (T1U) (T1U) (T2G) (T2G) (T2G) (EG)
                 (EG) (T1U) (T1U) (T1U) (A1G) (T2G) (T2G) (T2G)
                 (EG) (EG) (T2U) (T2U) (T2U) (A2U) (T1U) (T1U)
                 (T1U) (T1U) (T1U) (T1U) (T2U) (T2U) (T2U) (A2U)
                 (T1U) (T1U) (T1U) (T2G) (T2G) (T2G) (EG) (EG)
                 (A1G) (T1U) (T1U) (T1U) (A1G)
 Beta  Orbitals:
       Occupied  (A1G) (A1G) (T1U) (T1U) (T1U) (A1G) (T1U) (T1U)
       Virtual   (T1U) (A1G) (T1U) (T1U) (T1U) (T2G) (T2G) (T2G)
                 (EG) (EG) (T1U) (T1U) (T1U) (A1G) (T2G) (T2G)
                 (T2G) (EG) (EG) (T2U) (T2U) (T2U) (A2U) (T1U)
                 (T1U) (T1U) (T1U) (T1U) (T1U) (T2U) (T2U) (T2U)
                 (A2U) (T1U) (T1U) (T1U) (T2G) (T2G) (T2G) (EG)
                 (EG) (A1G) (T1U) (T1U) (T1U) (A1G)
 Initial guess <Sx>= 0.0000 <Sy>= 0.0000 <Sz>= 0.5000 <S**2>= 0.7500 S= 0.5000
 Leave Link  401 at Sun Apr 18 10:12:12 2021, MaxMem=   104857600 cpu:             277.2 elap:               5.9
 (Enter /s/ls4/users/knvvv/bin/g16sse/l502.exe)
 Keep R1 and R2 ints in memory in symmetry-blocked form, NReq=43573513.
 FoFCou: FMM=F IPFlag=           0 FMFlag=           0 FMFlg1=           0
         NFxFlg=           0 DoJE=F BraDBF=F KetDBF=F FulRan=T
         wScrn=  0.000000 ICntrl=       600 IOpCl=  0 I1Cent=           0 NGrid=           0
         NMat0=    1 NMatS0=   1485 NMatT0=    0 NMatD0=    1 NMtDS0=    0 NMtDT0=    0
 Petite list used in FoFCou.
 UHF open shell SCF:
 Using DIIS extrapolation, IDIIS=  1040.
 NGot=   104857600 LenX=   104544204 LenY=   104539794
 Requested convergence on RMS density matrix=1.00D-08 within 128 cycles.
 Requested convergence on MAX density matrix=1.00D-06.
 Requested convergence on             energy=1.00D-06.
 No special actions if energy rises.

 Cycle   1  Pass 1  IDiag  1:
 Density matrix breaks symmetry, PCut= 1.00D-04
 Density has only Abelian symmetry.
 E= -460.119441850951    
 DIIS: error= 3.75D-02 at cycle   1 NSaved=   1.
 NSaved= 1 IEnMin= 1 EnMin= -460.119441850951     IErMin= 1 ErrMin= 3.75D-02
 ErrMax= 3.75D-02  0.00D+00 EMaxC= 1.00D-01 BMatC= 2.28D-01 BMatP= 2.28D-01
 IDIUse=3 WtCom= 6.25D-01 WtEn= 3.75D-01
 Coeff-Com:  0.100D+01
 Coeff-En:   0.100D+01
 Coeff:      0.100D+01
 Gap=     0.557 Goal=   None    Shift=    0.000
 Gap=     0.209 Goal=   None    Shift=    0.000
 GapD=    0.209 DampG=1.000 DampE=0.500 DampFc=0.5000 IDamp=-1.
 Damping current iteration by 5.00D-01
 RMSDP=2.78D-03 MaxDP=7.62D-02              OVMax= 6.90D-02

 Cycle   2  Pass 1  IDiag  1:
 Density matrix breaks symmetry, PCut= 1.00D-04
 Density has only Abelian symmetry.
 E= -460.128073259112     Delta-E=       -0.008631408161 Rises=F Damp=T
 DIIS: error= 1.45D-02 at cycle   2 NSaved=   2.
 NSaved= 2 IEnMin= 2 EnMin= -460.128073259112     IErMin= 2 ErrMin= 1.45D-02
 ErrMax= 1.45D-02  0.00D+00 EMaxC= 1.00D-01 BMatC= 3.52D-02 BMatP= 2.28D-01
 IDIUse=3 WtCom= 8.55D-01 WtEn= 1.45D-01
 Coeff-Com: -0.513D+00 0.151D+01
 Coeff-En:   0.000D+00 0.100D+01
 Coeff:     -0.438D+00 0.144D+01
 Gap=     0.483 Goal=   None    Shift=    0.000
 Gap=     0.213 Goal=   None    Shift=    0.000
 RMSDP=7.45D-04 MaxDP=1.76D-02 DE=-8.63D-03 OVMax= 1.83D-02

 Cycle   3  Pass 1  IDiag  1:
 Density matrix breaks symmetry, PCut= 1.00D-04
 Density has only Abelian symmetry.
 E= -460.135932250426     Delta-E=       -0.007858991314 Rises=F Damp=F
 DIIS: error= 1.55D-03 at cycle   3 NSaved=   3.
 NSaved= 3 IEnMin= 3 EnMin= -460.135932250426     IErMin= 3 ErrMin= 1.55D-03
 ErrMax= 1.55D-03  0.00D+00 EMaxC= 1.00D-01 BMatC= 2.18D-04 BMatP= 3.52D-02
 IDIUse=3 WtCom= 9.85D-01 WtEn= 1.55D-02
 Coeff-Com: -0.502D-01 0.870D-01 0.963D+00
 Coeff-En:   0.000D+00 0.000D+00 0.100D+01
 Coeff:     -0.494D-01 0.856D-01 0.964D+00
 Gap=     0.484 Goal=   None    Shift=    0.000
 Gap=     0.215 Goal=   None    Shift=    0.000
 RMSDP=1.28D-04 MaxDP=3.21D-03 DE=-7.86D-03 OVMax= 4.67D-03

 Cycle   4  Pass 1  IDiag  1:
 Density matrix breaks symmetry, PCut= 1.00D-04
 Density has only Abelian symmetry.
 E= -460.135988273460     Delta-E=       -0.000056023034 Rises=F Damp=F
 DIIS: error= 2.54D-04 at cycle   4 NSaved=   4.
 NSaved= 4 IEnMin= 4 EnMin= -460.135988273460     IErMin= 4 ErrMin= 2.54D-04
 ErrMax= 2.54D-04  0.00D+00 EMaxC= 1.00D-01 BMatC= 1.15D-05 BMatP= 2.18D-04
 IDIUse=3 WtCom= 9.97D-01 WtEn= 2.54D-03
 Coeff-Com:  0.194D-01-0.420D-01-0.801D-01 0.110D+01
 Coeff-En:   0.000D+00 0.000D+00 0.000D+00 0.100D+01
 Coeff:      0.193D-01-0.419D-01-0.799D-01 0.110D+01
 Gap=     0.483 Goal=   None    Shift=    0.000
 Gap=     0.215 Goal=   None    Shift=    0.000
 RMSDP=4.61D-05 MaxDP=1.78D-03 DE=-5.60D-05 OVMax= 1.00D-03

 Cycle   5  Pass 1  IDiag  1:
 Density matrix breaks symmetry, PCut= 1.00D-04
 Density has only Abelian symmetry.
 E= -460.135991817824     Delta-E=       -0.000003544364 Rises=F Damp=F
 DIIS: error= 8.78D-05 at cycle   5 NSaved=   5.
 NSaved= 5 IEnMin= 5 EnMin= -460.135991817824     IErMin= 5 ErrMin= 8.78D-05
 ErrMax= 8.78D-05  0.00D+00 EMaxC= 1.00D-01 BMatC= 7.40D-07 BMatP= 1.15D-05
 IDIUse=1 WtCom= 1.00D+00 WtEn= 0.00D+00
 Coeff-Com:  0.767D-03-0.823D-03-0.616D-01 0.741D-01 0.988D+00
 Coeff:      0.767D-03-0.823D-03-0.616D-01 0.741D-01 0.988D+00
 Gap=     0.483 Goal=   None    Shift=    0.000
 Gap=     0.215 Goal=   None    Shift=    0.000
 RMSDP=8.56D-06 MaxDP=2.76D-04 DE=-3.54D-06 OVMax= 2.98D-04

 Cycle   6  Pass 1  IDiag  1:
 Density matrix breaks symmetry, PCut= 1.00D-04
 Density has only Abelian symmetry.
 E= -460.135992012343     Delta-E=       -0.000000194519 Rises=F Damp=F
 DIIS: error= 4.32D-06 at cycle   6 NSaved=   6.
 NSaved= 6 IEnMin= 6 EnMin= -460.135992012343     IErMin= 6 ErrMin= 4.32D-06
 ErrMax= 4.32D-06  0.00D+00 EMaxC= 1.00D-01 BMatC= 1.38D-09 BMatP= 7.40D-07
 IDIUse=1 WtCom= 1.00D+00 WtEn= 0.00D+00
 Coeff-Com:  0.138D-05-0.276D-05 0.237D-02-0.670D-02-0.624D-01 0.107D+01
 Coeff:      0.138D-05-0.276D-05 0.237D-02-0.670D-02-0.624D-01 0.107D+01
 Gap=     0.483 Goal=   None    Shift=    0.000
 Gap=     0.215 Goal=   None    Shift=    0.000
 RMSDP=6.88D-07 MaxDP=2.27D-05 DE=-1.95D-07 OVMax= 1.80D-05

 Cycle   7  Pass 1  IDiag  1:
 Density matrix breaks symmetry, PCut= 1.00D-04
 Density has only Abelian symmetry.
 E= -460.135992013112     Delta-E=       -0.000000000769 Rises=F Damp=F
 DIIS: error= 7.16D-07 at cycle   7 NSaved=   7.
 NSaved= 7 IEnMin= 7 EnMin= -460.135992013112     IErMin= 7 ErrMin= 7.16D-07
 ErrMax= 7.16D-07  0.00D+00 EMaxC= 1.00D-01 BMatC= 5.40D-11 BMatP= 1.38D-09
 IDIUse=1 WtCom= 1.00D+00 WtEn= 0.00D+00
 Coeff-Com: -0.146D-04 0.224D-04 0.127D-03 0.910D-03 0.229D-02-0.263D+00
 Coeff-Com:  0.126D+01
 Coeff:     -0.146D-04 0.224D-04 0.127D-03 0.910D-03 0.229D-02-0.263D+00
 Coeff:      0.126D+01
 Gap=     0.483 Goal=   None    Shift=    0.000
 Gap=     0.215 Goal=   None    Shift=    0.000
 RMSDP=1.38D-07 MaxDP=4.87D-06 DE=-7.69D-10 OVMax= 3.44D-06

 Cycle   8  Pass 1  IDiag  1:
 Density matrix breaks symmetry, PCut= 1.00D-04
 Density has only Abelian symmetry.
 E= -460.135992013141     Delta-E=       -0.000000000029 Rises=F Damp=F
 DIIS: error= 6.93D-08 at cycle   8 NSaved=   8.
 NSaved= 8 IEnMin= 8 EnMin= -460.135992013141     IErMin= 8 ErrMin= 6.93D-08
 ErrMax= 6.93D-08  0.00D+00 EMaxC= 1.00D-01 BMatC= 6.08D-13 BMatP= 5.40D-11
 IDIUse=1 WtCom= 1.00D+00 WtEn= 0.00D+00
 Coeff-Com:  0.267D-05-0.389D-05-0.683D-04-0.106D-03 0.111D-02 0.284D-01
 Coeff-Com: -0.214D+00 0.118D+01
 Coeff:      0.267D-05-0.389D-05-0.683D-04-0.106D-03 0.111D-02 0.284D-01
 Coeff:     -0.214D+00 0.118D+01
 Gap=     0.483 Goal=   None    Shift=    0.000
 Gap=     0.215 Goal=   None    Shift=    0.000
 RMSDP=1.28D-08 MaxDP=4.24D-07 DE=-2.89D-11 OVMax= 2.48D-07

 Cycle   9  Pass 1  IDiag  1:
 Density matrix breaks symmetry, PCut= 1.00D-04
 Density has only Abelian symmetry.
 E= -460.135992013141     Delta-E=        0.000000000000 Rises=F Damp=F
 DIIS: error= 7.17D-09 at cycle   9 NSaved=   9.
 NSaved= 9 IEnMin= 8 EnMin= -460.135992013141     IErMin= 9 ErrMin= 7.17D-09
 ErrMax= 7.17D-09  0.00D+00 EMaxC= 1.00D-01 BMatC= 4.02D-15 BMatP= 6.08D-13
 IDIUse=1 WtCom= 1.00D+00 WtEn= 0.00D+00
 Coeff-Com: -0.131D-06 0.124D-06 0.106D-04-0.112D-05-0.225D-03 0.932D-04
 Coeff-Com:  0.104D-01-0.129D+00 0.112D+01
 Coeff:     -0.131D-06 0.124D-06 0.106D-04-0.112D-05-0.225D-03 0.932D-04
 Coeff:      0.104D-01-0.129D+00 0.112D+01
 Gap=     0.483 Goal=   None    Shift=    0.000
 Gap=     0.215 Goal=   None    Shift=    0.000
 RMSDP=1.06D-09 MaxDP=2.61D-08 DE= 2.84D-13 OVMax= 3.14D-08

 Density matrix breaks symmetry, PCut= 1.00D-04
 Density has only Abelian symmetry.
 SCF Done:  E(UM062X) =  -460.135992013     A.U. after    9 cycles
            NFock=  9  Conv=0.11D-08     -V/T= 2.0011
 <Sx>= 0.0000 <Sy>= 0.0000 <Sz>= 0.5000 <S**2>= 0.7529 S= 0.5015
 <L.S>= 0.000000000000E+00
 KE= 4.596321249054D+02 PE=-1.094676394381D+03 EE= 1.749082774627D+02
 Annihilation of the first spin contaminant:
 S**2 before annihilation     0.7529,   after     0.7500
 Leave Link  502 at Sun Apr 18 10:13:27 2021, MaxMem=   104857600 cpu:            3542.7 elap:              75.4
 (Enter /s/ls4/users/knvvv/bin/g16sse/l601.exe)
 Copying SCF densities to generalized density rwf, IOpCl= 1 IROHF=0.
 SCF density gives NOpUse=  8 NOpAll= 48.
 Marking SCF density as not fully symmetric.

 **********************************************************************

            Population analysis using the SCF density.

 **********************************************************************

 Orbital symmetries:
 Alpha Orbitals:
       Occupied  (A1G) (A1G) (T1U) (T1U) (T1U) (?A) (?B) (?B) (?B)
       Virtual   (A1G) (?B) (?B) (?B) (?A) (?A) (?A) (?A) (?A)
                 (?B) (?B) (?B) (?A) (?A) (?A) (?A) (?B) (?B) (?B)
                 (?B) (A2U) (?A) (?A) (?B) (?B) (?B) (?B) (?B)
                 (?B) (?B) (?B) (?B) (A2U) (?B) (?B) (T2G) (T2G)
                 (T2G) (T2G) (T2G) (T2G) (T1U) (T1U) (T1U) (A1G)
 Beta  Orbitals:
       Occupied  (A1G) (A1G) (T1U) (T1U) (T1U) (?A) (?B) (?B)
       Virtual   (?B) (?A) (?B) (?B) (?B) (?A) (T2G) (T2G) (?A)
                 (T2G) (?B) (?B) (?B) (?A) (?B) (?B) (?B) (?A)
                 (T2G) (T2G) (A2U) (?B) (?B) (?B) (T2G) (?A) (?B)
                 (?B) (?B) (?C) (?C) (?C) (?C) (A2U) (?C) (?C)
                 (EG) (T2G) (T2G) (EG) (T2G) (A1G) (T1U) (T1U)
                 (T1U) (A1G)
 Unable to determine electronic state:  an orbital has unidentified symmetry.
 Alpha  occ. eigenvalues -- -102.69518  -9.85451  -7.59243  -7.57170  -7.57170
 Alpha  occ. eigenvalues --   -0.94484  -0.47068  -0.42331  -0.42331
 Alpha virt. eigenvalues --    0.05973   0.07522   0.07939   0.07939   0.28467
 Alpha virt. eigenvalues --    0.29143   0.29143   0.31085   0.31085   0.48048
 Alpha virt. eigenvalues --    0.49326   0.49326   0.80063   1.10459   1.11164
 Alpha virt. eigenvalues --    1.11164   1.12215   1.12608   1.12608   1.13597
 Alpha virt. eigenvalues --    1.13597   1.14112   1.14112   1.15183   1.15183
 Alpha virt. eigenvalues --    2.04737   2.08615   2.08615   4.22852   4.23780
 Alpha virt. eigenvalues --    4.23780   4.26393   4.26393   4.30766   4.30766
 Alpha virt. eigenvalues --    5.14901   5.16058   5.16058   5.19666   5.19666
 Alpha virt. eigenvalues --    9.27141  20.61844  20.64431  20.64431 215.74471
  Beta  occ. eigenvalues -- -102.68401  -9.85173  -7.56821  -7.56821  -7.56362
  Beta  occ. eigenvalues --   -0.87826  -0.40246  -0.40246
  Beta virt. eigenvalues --   -0.18750   0.04474   0.07602   0.07800   0.07800
  Beta virt. eigenvalues --    0.28978   0.30760   0.30760   0.31280   0.31280
  Beta virt. eigenvalues --    0.46133   0.48941   0.48941   0.82309   1.10394
  Beta virt. eigenvalues --    1.12672   1.12672   1.13462   1.13630   1.13630
  Beta virt. eigenvalues --    1.13809   1.13809   1.15071   1.15071   1.15147
  Beta virt. eigenvalues --    1.15147   2.10029   2.10029   2.12211   4.31873
  Beta virt. eigenvalues --    4.31873   4.34806   4.34806   4.34943   4.34943
  Beta virt. eigenvalues --    4.36486   5.17902   5.18993   5.18993   5.19975
  Beta virt. eigenvalues --    5.19975   9.28066  20.65456  20.65456  20.68101
  Beta virt. eigenvalues --  215.76278
          Condensed to atoms (all electrons):
               1
     1  Cl  17.000000
          Atomic-Atomic Spin Densities.
               1
     1  Cl   1.000000
 Mulliken charges and spin densities:
               1          2
     1  Cl  -0.000000   1.000000
 Sum of Mulliken charges =  -0.00000   1.00000
 Mulliken charges and spin densities with hydrogens summed into heavy atoms:
               1          2
     1  Cl  -0.000000   1.000000
 Electronic spatial extent (au):  <R**2>=             27.6840
 Charge=             -0.0000 electrons
 Dipole moment (field-independent basis, Debye):
    X=             -0.0000    Y=              0.0000    Z=             -0.0000  Tot=              0.0000
 Quadrupole moment (field-independent basis, Debye-Ang):
   XX=            -11.0342   YY=            -13.1009   ZZ=            -13.1009
   XY=              0.0000   XZ=             -0.0000   YZ=              0.0000
 Traceless Quadrupole moment (field-independent basis, Debye-Ang):
   XX=              1.3778   YY=             -0.6889   ZZ=             -0.6889
   XY=              0.0000   XZ=             -0.0000   YZ=              0.0000
 Octapole moment (field-independent basis, Debye-Ang**2):
  XXX=             -0.0000  YYY=             -0.0000  ZZZ=             -0.0000  XYY=             -0.0000
  XXY=              0.0000  XXZ=              0.0000  XZZ=             -0.0000  YZZ=             -0.0000
  YYZ=              0.0000  XYZ=             -0.0000
 Hexadecapole moment (field-independent basis, Debye-Ang**3):
 XXXX=            -11.1615 YYYY=            -15.5431 ZZZZ=            -15.5431 XXXY=              0.0000
 XXXZ=             -0.0000 YYYX=              0.0000 YYYZ=              0.0000 ZZZX=             -0.0000
 ZZZY=             -0.0000 XXYY=             -4.4602 XXZZ=             -4.4602 YYZZ=             -5.1810
 XXYZ=              0.0000 YYXZ=             -0.0000 ZZXY=              0.0000
 N-N= 0.000000000000D+00 E-N=-1.094676394428D+03  KE= 4.596321249054D+02
                          Isotropic Fermi Contact Couplings
        Atom                 a.u.       MegaHertz       Gauss      10(-4) cm-1
     1  Cl(35)            -0.22209     -97.37689     -34.74650     -32.48143
 --------------------------------------------------------
       Center         ----  Spin Dipole Couplings  ----
                      3XX-RR        3YY-RR        3ZZ-RR
 --------------------------------------------------------
     1   Atom        6.182636     -3.091318     -3.091318
 --------------------------------------------------------
                        XY            XZ            YZ
 --------------------------------------------------------
     1   Atom        0.000000      0.000000      0.000000
 --------------------------------------------------------


 ---------------------------------------------------------------------------------
              Anisotropic Spin Dipole Couplings in Principal Axis System
 ---------------------------------------------------------------------------------

       Atom             a.u.   MegaHertz   Gauss  10(-4) cm-1        Axes

              Baa    -3.0913  -161.792   -57.732   -53.968  0.0000  0.0000  1.0000
     1 Cl(35) Bbb    -3.0913  -161.792   -57.732   -53.968 -0.0000  1.0000  0.0000
              Bcc     6.1826   323.585   115.463   107.936  1.0000  0.0000  0.0000
 

 ---------------------------------------------------------------------------------

 No NMR shielding tensors so no spin-rotation constants.
 Leave Link  601 at Sun Apr 18 10:13:33 2021, MaxMem=   104857600 cpu:             257.7 elap:               5.5
 (Enter /s/ls4/users/knvvv/bin/g16sse/l801.exe)
 DoSCS=F DFT=T ScalE2(SS,OS)=  1.000000  1.000000
 Range of M.O.s used for correlation:     1    54
 NBasis=    54 NAE=     9 NBE=     8 NFC=     0 NFV=     0
 NROrb=     54 NOA=     9 NOB=     8 NVA=    45 NVB=    46
 Leave Link  801 at Sun Apr 18 10:13:33 2021, MaxMem=   104857600 cpu:               4.6 elap:               0.1
 (Enter /s/ls4/users/knvvv/bin/g16sse/l914.exe)
 UHF ground state
 Doing stability rather than CIS.
 Keep R1 and R2 ints in memory in symmetry-blocked form, NReq=66015341.
 FoFCou: FMM=F IPFlag=           0 FMFlag=           0 FMFlg1=           0
         NFxFlg=           0 DoJE=F BraDBF=F KetDBF=F FulRan=T
         wScrn=  0.000000 ICntrl=       600 IOpCl=  0 I1Cent=           0 NGrid=           0
         NMat0=    1 NMatS0=   1485 NMatT0=    0 NMatD0=    1 NMtDS0=    0 NMtDT0=    0
 Petite list used in FoFCou.
 MDV=   104857600 DFT=T DoStab=T Mixed=T DoRPA=F DoScal=F NonHer=F
 Making orbital integer symmetry assigments:
 Orbital symmetries:
 Alpha Orbitals:
       Occupied  (A1G) (A1G) (T1U) (T1U) (T1U) (?A) (?B) (?B) (?B)
       Virtual   (A1G) (?B) (?B) (?B) (?A) (?A) (?A) (?A) (?A)
                 (?B) (?B) (?B) (?A) (?A) (?A) (?A) (?B) (?B) (?B)
                 (?B) (A2U) (?A) (?A) (?B) (?B) (?B) (?B) (?B)
                 (?B) (?B) (?B) (?B) (A2U) (?B) (?B) (T2G) (T2G)
                 (T2G) (T2G) (T2G) (T2G) (T1U) (T1U) (T1U) (A1G)
 Beta  Orbitals:
       Occupied  (A1G) (A1G) (T1U) (T1U) (T1U) (?A) (?B) (?B)
       Virtual   (?B) (?A) (?B) (?B) (?B) (?A) (T2G) (T2G) (?A)
                 (T2G) (?B) (?B) (?B) (?A) (?B) (?B) (?B) (?A)
                 (T2G) (T2G) (A2U) (?B) (?B) (?B) (T2G) (?A) (?B)
                 (?B) (?B) (?C) (?C) (?C) (?C) (A2U) (?C) (?C)
                 (EG) (T2G) (T2G) (EG) (T2G) (A1G) (T1U) (T1U)
                 (T1U) (A1G)
    24 initial guesses have been made.
 Convergence on wavefunction:    0.001000000000000
 Davidson Disk Diagonalization:  ConvIn= 1.00D-03 SkipCon=T Conv= 1.00D-03.
 Max sub-space:  1546 roots to seek:    24 dimension of matrix:          773
 Iteration     1 Dimension    24 NMult     0 NNew     24
 CISAX will form    24 AO SS matrices at one time.
 NMat=    24 NSing=    24 JSym2X= 2.
 Excitation Energies [eV] at current iteration:
 Root      1 :     0.323481618592589
 Root      2 :     0.323481618592740
 Root      3 :     9.306561901913030
 Root      4 :     9.318460313877219
 Root      5 :     9.934732070496674
 Root      6 :     9.935235756386406
 Root      7 :    10.435543825322400
 Root      8 :    10.435543825323880
 Root      9 :    10.462546589340510
 Root     10 :    10.569130134143940
 Root     11 :    10.569149859909670
 Root     12 :    10.997235168525780
 Root     13 :    10.997235168529920
 Root     14 :    11.054831697029920
 Root     15 :    11.068541424534130
 Root     16 :    11.135643227364680
 Root     17 :    11.135643520830300
 Root     18 :    11.301368485953210
 Root     19 :    11.834805234599760
 Root     20 :    12.364676968283470
 Root     21 :    12.364676968289240
 Root     22 :    13.523320253567200
 Root     23 :    14.788381002770270
 Root     24 :    14.798680218041720
 Iteration     2 Dimension    48 NMult    24 NNew     24
 CISAX will form    24 AO SS matrices at one time.
 NMat=    24 NSing=    24 JSym2X= 2.
 Root      1 not converged, maximum delta is    0.293592236737861
 Excitation Energies [eV] at current iteration:
 Root      1 :     0.004467937158577   Change is   -0.319013681434012
 Root      2 :     0.004467937158735   Change is   -0.319013681434006
 Root      3 :     9.182190340739886   Change is   -0.124371561173145
 Root      4 :     9.187611835294124   Change is   -0.130848478583096
 Root      5 :     9.821828307767472   Change is   -0.112903762729201
 Root      6 :     9.822595216051477   Change is   -0.112640540334931
 Root      7 :    10.374826716738400   Change is   -0.060717108584000
 Root      8 :    10.374826716739690   Change is   -0.060717108584194
 Root      9 :    10.423380770127880   Change is   -0.145749364016051
 Root     10 :    10.423400551107060   Change is   -0.145749308802608
 Root     11 :    10.426481902005830   Change is   -0.036064687334678
 Root     12 :    10.727269507598540   Change is   -0.327562189431386
 Root     13 :    10.886487074054460   Change is   -0.110748094471323
 Root     14 :    10.886487074058230   Change is   -0.110748094471697
 Root     15 :    10.953006144180570   Change is   -0.182637083184117
 Root     16 :    10.953006228492730   Change is   -0.182637292337573
 Root     17 :    11.026908407843580   Change is   -0.274460078109633
 Root     18 :    11.032876773667030   Change is   -0.035664650867100
 Root     19 :    11.259559505433440   Change is   -3.528821497336827
 Root     20 :    11.554655220594640   Change is   -0.280150014005122
 Root     21 :    12.245816124566860   Change is   -0.118860843716609
 Root     22 :    12.245816124572660   Change is   -0.118860843716585
 Root     23 :    12.949387921061740   Change is   -0.573932332505466
 Root     24 :    14.165330822160720   Change is   -0.633349395881002
 Iteration     3 Dimension    51 NMult    48 NNew      3
 CISAX will form     3 AO SS matrices at one time.
 NMat=     3 NSing=     3 JSym2X= 2.
 Root      1 not converged, maximum delta is    0.242284804113541
 Excitation Energies [eV] at current iteration:
 Root      1 :     0.000009631415207   Change is   -0.004458305743370
 Root      2 :     0.000009631415376   Change is   -0.004458305743358
 Root      3 :     9.178706425587666   Change is   -0.003483915152219
 Iteration     4 Dimension    54 NMult    51 NNew      3
 CISAX will form     3 AO SS matrices at one time.
 NMat=     3 NSing=     3 JSym2X= 2.
 Root      1 not converged, maximum delta is    0.443632361265761
 Excitation Energies [eV] at current iteration:
 Root      1 :    -0.000003442078677   Change is   -0.000013073493884
 Root      2 :    -0.000003442078622   Change is   -0.000013073493999
 Root      3 :     9.178220789158431   Change is   -0.000485636429235
 Iteration     5 Dimension    57 NMult    54 NNew      3
 CISAX will form     3 AO SS matrices at one time.
 NMat=     3 NSing=     3 JSym2X= 2.
 Root      1 not converged, maximum delta is    0.048900316032171
 Excitation Energies [eV] at current iteration:
 Root      1 :    -0.000003460952320   Change is   -0.000000018873643
 Root      2 :    -0.000003460952217   Change is   -0.000000018873595
 Root      3 :     9.178205910337571   Change is   -0.000014878820860
 Iteration     6 Dimension    58 NMult    57 NNew      1
 CISAX will form     1 AO SS matrices at one time.
 NMat=     1 NSing=     1 JSym2X= 2.
 Root      1 not converged, maximum delta is    0.109431343196521
 Excitation Energies [eV] at current iteration:
 Root      1 :    -0.000003460952299   Change is    0.000000000000021
 Root      2 :    -0.000003460952275   Change is   -0.000000000000057
 Root      3 :     9.178205660384853   Change is   -0.000000249952719
 Iteration     7 Dimension    59 NMult    58 NNew      1
 CISAX will form     1 AO SS matrices at one time.
 NMat=     1 NSing=     1 JSym2X= 2.
 New state      1 was old state      2
 Root      1 not converged, maximum delta is    0.302433979422842
 Excitation Energies [eV] at current iteration:
 Root      1 :    -0.000003460952293   Change is   -0.000000000000018
 Root      2 :    -0.000003460952232   Change is    0.000000000000066
 Root      3 :     9.178205633436088   Change is   -0.000000026948766
 Iteration     8 Dimension    60 NMult    59 NNew      1
 CISAX will form     1 AO SS matrices at one time.
 NMat=     1 NSing=     1 JSym2X= 2.
 New state      1 was old state      2
 Root      1 not converged, maximum delta is    0.290003917441943
 Excitation Energies [eV] at current iteration:
 Root      1 :    -0.000003460952284   Change is   -0.000000000000051
 Root      2 :    -0.000003460952245   Change is    0.000000000000048
 Root      3 :     9.178205633102941   Change is   -0.000000000333146
 Convergence achieved on expansion vectors.
 ***********************************************************************
 Stability analysis using <AA,BB:AA,BB> singles matrix:
 ***********************************************************************
 1PDM for each excited state written to RWF  633
 Ground to excited state transition densities written to RWF  633

 Eigenvectors of the stability matrix:
 
 Excited state symmetry could not be determined.
 Eigenvector   1:  2.009-?Sym  Eigenvalue=-0.0000001  <S**2>=0.759
      7B ->  9B        0.81880
      8B ->  9B        0.55439
 
 Excited state symmetry could not be determined.
 Eigenvector   2:  2.009-?Sym  Eigenvalue=-0.0000001  <S**2>=0.759
      7B ->  9B       -0.55439
      8B ->  9B        0.81880
 
 Excited state symmetry could not be determined.
 Eigenvector   3:  3.042-?Sym  Eigenvalue= 0.3372929  <S**2>=2.063
      9A -> 10A       -0.15023
      8B -> 10B        0.98274
 The wavefunction is stable under the perturbations considered.
 Leave Link  914 at Sun Apr 18 10:13:44 2021, MaxMem=   104857600 cpu:             501.0 elap:              10.7
 (Enter /s/ls4/users/knvvv/bin/g16sse/l508.exe)
 The wavefunction is already stable.
 Leave Link  508 at Sun Apr 18 10:13:44 2021, MaxMem=   104857600 cpu:               2.2 elap:               0.1
 (Enter /s/ls4/users/knvvv/bin/g16sse/l601.exe)
 Copying SCF densities to generalized density rwf, IOpCl= 1 IROHF=0.
 SCF density gives NOpUse=  8 NOpAll= 48.
 Marking SCF density as not fully symmetric.

 **********************************************************************

            Population analysis using the SCF density.

 **********************************************************************

 Orbital symmetries:
 Alpha Orbitals:
       Occupied  (A1G) (A1G) (T1U) (T1U) (T1U) (?A) (?B) (?B) (?B)
       Virtual   (A1G) (?B) (?B) (?B) (?A) (?A) (?A) (?A) (?A)
                 (?B) (?B) (?B) (?A) (?A) (?A) (?A) (?B) (?B) (?B)
                 (?B) (A2U) (?A) (?A) (?B) (?B) (?B) (?B) (?B)
                 (?B) (?B) (?B) (?B) (A2U) (?B) (?B) (T2G) (T2G)
                 (T2G) (T2G) (T2G) (T2G) (T1U) (T1U) (T1U) (A1G)
 Beta  Orbitals:
       Occupied  (A1G) (A1G) (T1U) (T1U) (T1U) (?A) (?B) (?B)
       Virtual   (?B) (?A) (?B) (?B) (?B) (?A) (T2G) (T2G) (?A)
                 (T2G) (?B) (?B) (?B) (?A) (?B) (?B) (?B) (?A)
                 (T2G) (T2G) (A2U) (?B) (?B) (?B) (T2G) (?A) (?B)
                 (?B) (?B) (?C) (?C) (?C) (?C) (A2U) (?C) (?C)
                 (EG) (T2G) (T2G) (EG) (T2G) (A1G) (T1U) (T1U)
                 (T1U) (A1G)
 Unable to determine electronic state:  an orbital has unidentified symmetry.
 Alpha  occ. eigenvalues -- -102.69518  -9.85451  -7.59243  -7.57170  -7.57170
 Alpha  occ. eigenvalues --   -0.94484  -0.47068  -0.42331  -0.42331
 Alpha virt. eigenvalues --    0.05973   0.07522   0.07939   0.07939   0.28467
 Alpha virt. eigenvalues --    0.29143   0.29143   0.31085   0.31085   0.48048
 Alpha virt. eigenvalues --    0.49326   0.49326   0.80063   1.10459   1.11164
 Alpha virt. eigenvalues --    1.11164   1.12215   1.12608   1.12608   1.13597
 Alpha virt. eigenvalues --    1.13597   1.14112   1.14112   1.15183   1.15183
 Alpha virt. eigenvalues --    2.04737   2.08615   2.08615   4.22852   4.23780
 Alpha virt. eigenvalues --    4.23780   4.26393   4.26393   4.30766   4.30766
 Alpha virt. eigenvalues --    5.14901   5.16058   5.16058   5.19666   5.19666
 Alpha virt. eigenvalues --    9.27141  20.61844  20.64431  20.64431 215.74471
  Beta  occ. eigenvalues -- -102.68401  -9.85173  -7.56821  -7.56821  -7.56362
  Beta  occ. eigenvalues --   -0.87826  -0.40246  -0.40246
  Beta virt. eigenvalues --   -0.18750   0.04474   0.07602   0.07800   0.07800
  Beta virt. eigenvalues --    0.28978   0.30760   0.30760   0.31280   0.31280
  Beta virt. eigenvalues --    0.46133   0.48941   0.48941   0.82309   1.10394
  Beta virt. eigenvalues --    1.12672   1.12672   1.13462   1.13630   1.13630
  Beta virt. eigenvalues --    1.13809   1.13809   1.15071   1.15071   1.15147
  Beta virt. eigenvalues --    1.15147   2.10029   2.10029   2.12211   4.31873
  Beta virt. eigenvalues --    4.31873   4.34806   4.34806   4.34943   4.34943
  Beta virt. eigenvalues --    4.36486   5.17902   5.18993   5.18993   5.19975
  Beta virt. eigenvalues --    5.19975   9.28066  20.65456  20.65456  20.68101
  Beta virt. eigenvalues --  215.76278
          Condensed to atoms (all electrons):
               1
     1  Cl  17.000000
          Atomic-Atomic Spin Densities.
               1
     1  Cl   1.000000
 Mulliken charges and spin densities:
               1          2
     1  Cl  -0.000000   1.000000
 Sum of Mulliken charges =  -0.00000   1.00000
 Mulliken charges and spin densities with hydrogens summed into heavy atoms:
               1          2
     1  Cl  -0.000000   1.000000
 Electronic spatial extent (au):  <R**2>=             27.6840
 Charge=             -0.0000 electrons
 Dipole moment (field-independent basis, Debye):
    X=             -0.0000    Y=              0.0000    Z=             -0.0000  Tot=              0.0000
 Quadrupole moment (field-independent basis, Debye-Ang):
   XX=            -11.0342   YY=            -13.1009   ZZ=            -13.1009
   XY=              0.0000   XZ=             -0.0000   YZ=              0.0000
 Traceless Quadrupole moment (field-independent basis, Debye-Ang):
   XX=              1.3778   YY=             -0.6889   ZZ=             -0.6889
   XY=              0.0000   XZ=             -0.0000   YZ=              0.0000
 Octapole moment (field-independent basis, Debye-Ang**2):
  XXX=             -0.0000  YYY=             -0.0000  ZZZ=             -0.0000  XYY=             -0.0000
  XXY=              0.0000  XXZ=              0.0000  XZZ=             -0.0000  YZZ=             -0.0000
  YYZ=              0.0000  XYZ=             -0.0000
 Hexadecapole moment (field-independent basis, Debye-Ang**3):
 XXXX=            -11.1615 YYYY=            -15.5431 ZZZZ=            -15.5431 XXXY=              0.0000
 XXXZ=             -0.0000 YYYX=              0.0000 YYYZ=              0.0000 ZZZX=             -0.0000
 ZZZY=             -0.0000 XXYY=             -4.4602 XXZZ=             -4.4602 YYZZ=             -5.1810
 XXYZ=              0.0000 YYXZ=             -0.0000 ZZXY=              0.0000
 N-N= 0.000000000000D+00 E-N=-1.094676394428D+03  KE= 4.596321249054D+02
                          Isotropic Fermi Contact Couplings
        Atom                 a.u.       MegaHertz       Gauss      10(-4) cm-1
     1  Cl(35)            -0.22209     -97.37689     -34.74650     -32.48143
 --------------------------------------------------------
       Center         ----  Spin Dipole Couplings  ----
                      3XX-RR        3YY-RR        3ZZ-RR
 --------------------------------------------------------
     1   Atom        6.182636     -3.091318     -3.091318
 --------------------------------------------------------
                        XY            XZ            YZ
 --------------------------------------------------------
     1   Atom        0.000000      0.000000      0.000000
 --------------------------------------------------------


 ---------------------------------------------------------------------------------
              Anisotropic Spin Dipole Couplings in Principal Axis System
 ---------------------------------------------------------------------------------

       Atom             a.u.   MegaHertz   Gauss  10(-4) cm-1        Axes

              Baa    -3.0913  -161.792   -57.732   -53.968  0.0000  0.0000  1.0000
     1 Cl(35) Bbb    -3.0913  -161.792   -57.732   -53.968 -0.0000  1.0000  0.0000
              Bcc     6.1826   323.585   115.463   107.936  1.0000  0.0000  0.0000
 

 ---------------------------------------------------------------------------------

 No NMR shielding tensors so no spin-rotation constants.
 Leave Link  601 at Sun Apr 18 10:13:49 2021, MaxMem=   104857600 cpu:             267.8 elap:               5.7
 (Enter /s/ls4/users/knvvv/bin/g16sse/l9999.exe)

 Test job not archived.
 1\1\GINC-N178\Stability\UM062X\Gen\Cl1(2)\KNVVV\18-Apr-2021\0\\#P M062
 X/GEN Integral=UltraFineGrid SCF=NoSymm Stable=(RExt, Opt) IOp(1/33=1)
 \\Database calculations.\\0,2\Cl,0,0.,0.,0.\\Version=ES64L-G16RevA.03\
 HF=-460.135992\S2=0.752931\S2-1=0.\S2A=0.750004\RMSD=1.061e-09\Dipole=
 0.,0.,0.\Quadrupole=-0.5121686,-0.5121686,1.0243372,0.,0.,0.\PG=OH [O(
 Cl1)]\\@


 THE TEST OF A FIRST RATE INTELLIGENCE IS THE ABILITY TO HOLD TWO OPPOSED
 IDEAS IN THE MIND AT THE SAME TIME, AND STILL RETAIN THE ABILITY TO FUNCTION.
 ONE SHOULD, FOR EXAMPLE, BE ABLE TO SEE THAT THINGS ARE HOPELESS AND YET BE
 DETERMINED TO MAKE THEM OTHERWISE.

                                                       -- F. SCOTT FITZGERALD
 Job cpu time:       0 days  1 hours 28 minutes  5.6 seconds.
 Elapsed time:       0 days  0 hours  1 minutes 52.8 seconds.
 File lengths (MBytes):  RWF=     31 Int=      0 D2E=      0 Chk=      2 Scr=      1
 Normal termination of Gaussian 16 at Sun Apr 18 10:13:50 2021.
