 Entering Gaussian System, Link 0=/s/ls4/users/knvvv/bin/g16sse/g16
 Input=data/database/M062X--def2-QZVPPD--27_Cl_AE18.gjf
 Output=data/database/M062X--def2-QZVPPD--27_Cl_AE18.log
 Initial command:
 /s/ls4/users/knvvv/bin/g16sse/l1.exe "/s/ls4/users/knvvv/bin/scratch/Gau-8177.inp" -scrdir="/s/ls4/users/knvvv/bin/scratch/"
 Entering Link 1 = /s/ls4/users/knvvv/bin/g16sse/l1.exe PID=      8178.
  
 Copyright (c) 1988,1990,1992,1993,1995,1998,2003,2009,2016,
            Gaussian, Inc.  All Rights Reserved.
  
 This is part of the Gaussian(R) 16 program.  It is based on
 the Gaussian(R) 09 system (copyright 2009, Gaussian, Inc.),
 the Gaussian(R) 03 system (copyright 2003, Gaussian, Inc.),
 the Gaussian(R) 98 system (copyright 1998, Gaussian, Inc.),
 the Gaussian(R) 94 system (copyright 1995, Gaussian, Inc.),
 the Gaussian 92(TM) system (copyright 1992, Gaussian, Inc.),
 the Gaussian 90(TM) system (copyright 1990, Gaussian, Inc.),
 the Gaussian 88(TM) system (copyright 1988, Gaussian, Inc.),
 the Gaussian 86(TM) system (copyright 1986, Carnegie Mellon
 University), and the Gaussian 82(TM) system (copyright 1983,
 Carnegie Mellon University). Gaussian is a federally registered
 trademark of Gaussian, Inc.
  
 This software contains proprietary and confidential information,
 including trade secrets, belonging to Gaussian, Inc.
  
 This software is provided under written license and may be
 used, copied, transmitted, or stored only in accord with that
 written license.
  
 The following legend is applicable only to US Government
 contracts under FAR:
  
                    RESTRICTED RIGHTS LEGEND
  
 Use, reproduction and disclosure by the US Government is
 subject to restrictions as set forth in subparagraphs (a)
 and (c) of the Commercial Computer Software - Restricted
 Rights clause in FAR 52.227-19.
  
 Gaussian, Inc.
 340 Quinnipiac St., Bldg. 40, Wallingford CT 06492
  
  
 ---------------------------------------------------------------
 Warning -- This program may not be used in any manner that
 competes with the business of Gaussian, Inc. or will provide
 assistance to any competitor of Gaussian, Inc.  The licensee
 of this program is prohibited from giving any competitor of
 Gaussian, Inc. access to this program.  By using this program,
 the user acknowledges that Gaussian, Inc. is engaged in the
 business of creating and licensing software in the field of
 computational chemistry and represents and warrants to the
 licensee that it is not a competitor of Gaussian, Inc. and that
 it will not use this program in any manner prohibited above.
 ---------------------------------------------------------------
  

 Cite this work as:
 Gaussian 16, Revision A.03,
 M. J. Frisch, G. W. Trucks, H. B. Schlegel, G. E. Scuseria, 
 M. A. Robb, J. R. Cheeseman, G. Scalmani, V. Barone, 
 G. A. Petersson, H. Nakatsuji, X. Li, M. Caricato, A. V. Marenich, 
 J. Bloino, B. G. Janesko, R. Gomperts, B. Mennucci, H. P. Hratchian, 
 J. V. Ortiz, A. F. Izmaylov, J. L. Sonnenberg, D. Williams-Young, 
 F. Ding, F. Lipparini, F. Egidi, J. Goings, B. Peng, A. Petrone, 
 T. Henderson, D. Ranasinghe, V. G. Zakrzewski, J. Gao, N. Rega, 
 G. Zheng, W. Liang, M. Hada, M. Ehara, K. Toyota, R. Fukuda, 
 J. Hasegawa, M. Ishida, T. Nakajima, Y. Honda, O. Kitao, H. Nakai, 
 T. Vreven, K. Throssell, J. A. Montgomery, Jr., J. E. Peralta, 
 F. Ogliaro, M. J. Bearpark, J. J. Heyd, E. N. Brothers, K. N. Kudin, 
 V. N. Staroverov, T. A. Keith, R. Kobayashi, J. Normand, 
 K. Raghavachari, A. P. Rendell, J. C. Burant, S. S. Iyengar, 
 J. Tomasi, M. Cossi, J. M. Millam, M. Klene, C. Adamo, R. Cammi, 
 J. W. Ochterski, R. L. Martin, K. Morokuma, O. Farkas, 
 J. B. Foresman, and D. J. Fox, Gaussian, Inc., Wallingford CT, 2016.
 
 ******************************************
 Gaussian 16:  ES64L-G16RevA.03 25-Dec-2016
                18-Apr-2021 
 ******************************************
 %RWF=temp7_81696,70GB
 %nprocshared=48
 Will use up to   48 processors via shared memory.
 Default route: MaxDisk=80GB
 ----------------------------------------------------------------------
 #P M062X/GEN Integral=UltraFineGrid SCF=NoSymm Stable=(RExt, Opt) IOp(
 1/33=1)
 ----------------------------------------------------------------------
 1/33=1,38=1,172=1/1;
 2/12=2,17=6,18=5,40=1/2;
 3/5=7,11=2,25=1,30=1,74=-55,75=-5/1,2,3;
 4/9=2/1;
 5/5=2,38=5/2;
 6/7=2,8=2,9=2,10=2,28=1/1;
 8/6=1,10=90,11=11/1;
 9/8=-3,42=1,46=1/14;
 5/5=2,8=3,17=40,38=5/8(-2);
 6/7=2,8=2,9=2,10=2,28=1/1;
 99/5=1,9=1/99;
 Leave Link    1 at Sun Apr 18 00:26:50 2021, MaxMem=           0 cpu:              11.7 elap:               0.3
 (Enter /s/ls4/users/knvvv/bin/g16sse/l101.exe)
 ONIOM data not found on unit 2.
 ----------------------
 Database calculations.
 ----------------------
 TstMul:  ICh=     0
 TstMul:  Mul=     2
 TstMul:  ICh=     0
 TstMul:  Mul=     2
 Symbolic Z-matrix:
 Charge =  0 Multiplicity = 2
 Cl                    0.        0.        0. 
 
 RdStrC is calling ZToCFu for IStruc=1 NZ=     1.
 PrtBox:  NBox=     1 Levels=  0 BoxLen=    8.00 SMaxX=        0.00
          Shift=            0.000000            0.000000            0.000000
 Box      1 Number                   0 centers from      1 to      1:
 After GenITR:
 ITRead=  0
 MicOpt= -1
 ITRead=  0
 MicOpt= -1
 NAtoms=      1 NQM=        1 NQMF=       0 NMMI=      0 NMMIF=      0
                NMic=       0 NMicF=      0.
                    Isotopes and Nuclear Properties:
 (Nuclear quadrupole moments (NQMom) in fm**2, nuclear magnetic moments (NMagM)
  in nuclear magnetons)

  Atom         1
 IAtWgt=          35
 AtmWgt=  34.9688527
 NucSpn=           3
 AtZEff=  -0.0000000
 NQMom=   -8.1650000
 NMagM=    0.8218740
 AtZNuc=  17.0000000
 No MM parameters found.
 Leave Link  101 at Sun Apr 18 00:26:51 2021, MaxMem=   104857600 cpu:              10.9 elap:               0.3
 (Enter /s/ls4/users/knvvv/bin/g16sse/l202.exe)
                          Input orientation:                          
 ---------------------------------------------------------------------
 Center     Atomic      Atomic             Coordinates (Angstroms)
 Number     Number       Type             X           Y           Z
 ---------------------------------------------------------------------
      1         17           0        0.000000    0.000000    0.000000
 ---------------------------------------------------------------------
 Stoichiometry    Cl(2)
 Framework group  OH[O(Cl)]
 Deg. of freedom     0
 Full point group                 OH      NOp  48
 Largest Abelian subgroup         D2H     NOp   8
 Largest concise Abelian subgroup C1      NOp   1
                         Standard orientation:                         
 ---------------------------------------------------------------------
 Center     Atomic      Atomic             Coordinates (Angstroms)
 Number     Number       Type             X           Y           Z
 ---------------------------------------------------------------------
      1         17           0        0.000000    0.000000    0.000000
 ---------------------------------------------------------------------
 Leave Link  202 at Sun Apr 18 00:26:52 2021, MaxMem=   104857600 cpu:              32.8 elap:               0.8
 (Enter /s/ls4/users/knvvv/bin/g16sse/l301.exe)
 General basis read from cards:  (5D, 7F)
 Centers:       1
 S 10 1.00
     Exponent=  1.4674590095D+06 Coefficients=  1.1478257194D-05
     Exponent=  2.1975616433D+05 Coefficients=  8.9234299775D-05
     Exponent=  5.0010770301D+04 Coefficients=  4.6911086186D-04
     Exponent=  1.4164823918D+04 Coefficients=  1.9762446133D-03
     Exponent=  4.6207465525D+03 Coefficients=  7.1419937783D-03
     Exponent=  1.6678991635D+03 Coefficients=  2.2753219445D-02
     Exponent=  6.5029199265D+02 Coefficients=  6.3959782953D-02
     Exponent=  2.6938037376D+02 Coefficients=  1.5331059238D-01
     Exponent=  1.1706752106D+02 Coefficients=  2.8986952417D-01
     Exponent=  5.2811766843D+01 Coefficients=  3.6348071452D-01
 S 3 1.00
     Exponent=  4.6142769988D+02 Coefficients=  1.8019457578D-02
     Exponent=  1.4212665355D+02 Coefficients=  1.6489442314D-01
     Exponent=  5.4437838768D+01 Coefficients=  6.3891587584D-01
 S 1 1.00
     Exponent=  2.4160770219D+01 Coefficients=  1.0000000000D+00
 S 1 1.00
     Exponent=  9.7083540306D+00 Coefficients=  1.0000000000D+00
 S 1 1.00
     Exponent=  4.5640696733D+00 Coefficients=  1.0000000000D+00
 S 1 1.00
     Exponent=  2.1194744832D+00 Coefficients=  1.0000000000D+00
 S 1 1.00
     Exponent=  7.5722365394D-01 Coefficients=  1.0000000000D+00
 S 1 1.00
     Exponent=  3.3747224597D-01 Coefficients=  1.0000000000D+00
 S 1 1.00
     Exponent=  1.3860775149D-01 Coefficients=  1.0000000000D+00
 S 1 1.00
     Exponent=  5.4234565513D-02 Coefficients=  1.0000000000D+00
 P 8 1.00
     Exponent=  2.5019457890D+03 Coefficients=  2.4242618410D-04
     Exponent=  5.9288059285D+02 Coefficients=  2.1079961749D-03
     Exponent=  1.9218089186D+02 Coefficients=  1.1432693869D-02
     Exponent=  7.2875710488D+01 Coefficients=  4.4956698060D-02
     Exponent=  3.0436358370D+01 Coefficients=  1.3197476145D-01
     Exponent=  1.3490178902D+01 Coefficients=  2.7493639225D-01
     Exponent=  6.1478071413D+00 Coefficients=  3.8347236372D-01
     Exponent=  2.8450944820D+00 Coefficients=  2.8871943885D-01
 P 2 1.00
     Exponent=  1.0539397936D+02 Coefficients= -3.4311760144D-02
     Exponent=  6.7369738513D+00 Coefficients=  6.4060818902D-01
 P 1 1.00
     Exponent=  1.2421095772D+00 Coefficients=  1.0000000000D+00
 P 1 1.00
     Exponent=  5.5669714254D-01 Coefficients=  1.0000000000D+00
 P 1 1.00
     Exponent=  2.3387801464D-01 Coefficients=  1.0000000000D+00
 P 1 1.00
     Exponent=  9.3164490890D-02 Coefficients=  1.0000000000D+00
 P 1 1.00
     Exponent=  2.7256146018D-02 Coefficients=  1.0000000000D+00
 D 1 1.00
     Exponent=  5.1910000000D+00 Coefficients=  1.0000000000D+00
 D 1 1.00
     Exponent=  1.2760000000D+00 Coefficients=  1.0000000000D+00
 D 1 1.00
     Exponent=  5.8300000000D-01 Coefficients=  1.0000000000D+00
 D 1 1.00
     Exponent=  2.4300000000D-01 Coefficients=  1.0000000000D+00
 D 1 1.00
     Exponent=  8.3456538402D-02 Coefficients=  1.0000000000D+00
 F 1 1.00
     Exponent=  1.0890000000D+00 Coefficients=  1.0000000000D+00
 F 1 1.00
     Exponent=  4.2300000000D-01 Coefficients=  1.0000000000D+00
 G 1 1.00
     Exponent=  8.2700000000D-01 Coefficients=  1.0000000000D+00
 ****
 Ernie: Thresh=  0.10000D-02 Tol=  0.10000D-05 Strict=F.
 There are    31 symmetry adapted cartesian basis functions of AG  symmetry.
 There are     8 symmetry adapted cartesian basis functions of B1G symmetry.
 There are     8 symmetry adapted cartesian basis functions of B2G symmetry.
 There are     8 symmetry adapted cartesian basis functions of B3G symmetry.
 There are     2 symmetry adapted cartesian basis functions of AU  symmetry.
 There are    13 symmetry adapted cartesian basis functions of B1U symmetry.
 There are    13 symmetry adapted cartesian basis functions of B2U symmetry.
 There are    13 symmetry adapted cartesian basis functions of B3U symmetry.
 There are    23 symmetry adapted basis functions of AG  symmetry.
 There are     7 symmetry adapted basis functions of B1G symmetry.
 There are     7 symmetry adapted basis functions of B2G symmetry.
 There are     7 symmetry adapted basis functions of B3G symmetry.
 There are     2 symmetry adapted basis functions of AU  symmetry.
 There are    11 symmetry adapted basis functions of B1U symmetry.
 There are    11 symmetry adapted basis functions of B2U symmetry.
 There are    11 symmetry adapted basis functions of B3U symmetry.
    79 basis functions,   131 primitive gaussians,    96 cartesian basis functions
     9 alpha electrons        8 beta electrons
       nuclear repulsion energy         0.0000000000 Hartrees.
 IExCor= 4336 DFT=T Ex+Corr=M062X ExCW=0 ScaHFX=  0.540000
 ScaDFX=  1.000000  1.000000  1.000000  1.000000 ScalE2=  1.000000  1.000000
 IRadAn=      5 IRanWt=     -1 IRanGd=            0 ICorTp=0 IEmpDi=  4
 NAtoms=    1 NActive=    1 NUniq=    1 SFac= 1.00D+00 NAtFMM=   60 NAOKFM=F Big=F
 Integral buffers will be    131072 words long.
 Raffenetti 2 integral format.
 Two-electron integral symmetry is turned on.
 Leave Link  301 at Sun Apr 18 00:26:53 2021, MaxMem=   104857600 cpu:              16.3 elap:               0.5
 (Enter /s/ls4/users/knvvv/bin/g16sse/l302.exe)
 NPDir=0 NMtPBC=     1 NCelOv=     1 NCel=       1 NClECP=     1 NCelD=      1
         NCelK=      1 NCelE2=     1 NClLst=     1 CellRange=     0.0.
 One-electron integrals computed using PRISM.
 One-electron integral symmetry used in STVInt
 PrsmSu:  requested number of processors reduced to:   4 ShMem   1 Linda.
 PrsmSu:  requested number of processors reduced to:  21 ShMem   1 Linda.
 NBasis=    79 RedAO= T EigKep=  1.69D-03  NBF=    23     7     7     7     2    11    11    11
 NBsUse=    79 1.00D-06 EigRej= -1.00D+00 NBFU=    23     7     7     7     2    11    11    11
 Precomputing XC quadrature grid using
 IXCGrd= 4 IRadAn=           5 IRanWt=          -1 IRanGd=           0 AccXCQ= 0.00D+00.
 Generated NRdTot=       0 NPtTot=           0 NUsed=           0 NTot=          32
 NSgBfM=    96    96    96    96    96 MxSgAt=     1 MxSgA2=     1.
 Leave Link  302 at Sun Apr 18 00:27:08 2021, MaxMem=   104857600 cpu:             700.7 elap:              15.3
 (Enter /s/ls4/users/knvvv/bin/g16sse/l303.exe)
 DipDrv:  MaxL=1.
 Leave Link  303 at Sun Apr 18 00:27:09 2021, MaxMem=   104857600 cpu:              35.9 elap:               1.0
 (Enter /s/ls4/users/knvvv/bin/g16sse/l401.exe)
 SCF N**3 symmetry information disabled.
 ExpMin= 2.73D-02 ExpMax= 1.47D+06 ExpMxC= 1.67D+03 IAcc=3 IRadAn=         5 AccDes= 0.00D+00
 Harris functional with IExCor= 1009 and IRadAn=       5 diagonalized for initial guess.
 HarFok:  IExCor= 1009 AccDes= 0.00D+00 IRadAn=         5 IDoV= 1 UseB2=F ITyADJ=14
 ICtDFT=  3500011 ScaDFX=  1.000000  1.000000  1.000000  1.000000
 FoFCou: FMM=F IPFlag=           0 FMFlag=      100000 FMFlg1=           0
         NFxFlg=           0 DoJE=T BraDBF=F KetDBF=T FulRan=T
         wScrn=  0.000000 ICntrl=       500 IOpCl=  0 I1Cent=   200000004 NGrid=           0
         NMat0=    1 NMatS0=      1 NMatT0=    0 NMatD0=    1 NMtDS0=    0 NMtDT0=    0
 Petite list used in FoFCou.
 CoulSu:  requested number of processors reduced to:  21 ShMem   1 Linda.
 CoulSu:  requested number of processors reduced to:  21 ShMem   1 Linda.
 CoulSu:  requested number of processors reduced to:  21 ShMem   1 Linda.
 CoulSu:  requested number of processors reduced to:  21 ShMem   1 Linda.
 Harris En= -459.892912649291    
 JPrj=0 DoOrth=F DoCkMO=F.
 Initial guess orbital symmetries:
 Alpha Orbitals:
       Occupied  (A1G) (A1G) (T1U) (T1U) (T1U) (A1G) (T1U) (T1U)
                 (T1U)
       Virtual   (A1G) (T1U) (T1U) (T1U) (T2G) (T2G) (T2G) (EG)
                 (EG) (T1U) (T1U) (T1U) (T2G) (T2G) (T2G) (EG)
                 (EG) (A1G) (T1U) (T1U) (T1U) (T2G) (T2G) (T2G)
                 (EG) (EG) (T2U) (T2U) (T2U) (A2U) (T1U) (T1U)
                 (T1U) (A1G) (T2G) (T2G) (T2G) (EG) (EG) (T1G)
                 (T1G) (T1G) (T2G) (T2G) (T2G) (EG) (EG) (A1G)
                 (T1U) (T1U) (T1U) (T2U) (T2U) (T2U) (A2U) (T1U)
                 (T1U) (T1U) (A1G) (T2G) (T2G) (T2G) (EG) (EG)
                 (A1G) (T1U) (T1U) (T1U) (A1G) (A1G)
 Beta  Orbitals:
       Occupied  (A1G) (A1G) (T1U) (T1U) (T1U) (A1G) (T1U) (T1U)
       Virtual   (T1U) (A1G) (T1U) (T1U) (T1U) (T2G) (T2G) (T2G)
                 (EG) (EG) (T1U) (T1U) (T1U) (T2G) (T2G) (T2G)
                 (EG) (EG) (A1G) (T1U) (T1U) (T1U) (T2G) (T2G)
                 (T2G) (EG) (EG) (T2U) (T2U) (T2U) (A2U) (T1U)
                 (T1U) (T1U) (A1G) (T2G) (T2G) (T2G) (EG) (EG)
                 (T1G) (T1G) (T1G) (T2G) (T2G) (T2G) (EG) (EG)
                 (A1G) (T1U) (T1U) (T1U) (T2U) (T2U) (T2U) (A2U)
                 (T1U) (T1U) (T1U) (A1G) (T2G) (T2G) (T2G) (EG)
                 (EG) (A1G) (T1U) (T1U) (T1U) (A1G) (A1G)
 Initial guess <Sx>= 0.0000 <Sy>= 0.0000 <Sz>= 0.5000 <S**2>= 0.7500 S= 0.5000
 Leave Link  401 at Sun Apr 18 00:27:12 2021, MaxMem=   104857600 cpu:              88.9 elap:               2.4
 (Enter /s/ls4/users/knvvv/bin/g16sse/l502.exe)
 Keep R1 and R2 ints in memory in symmetry-blocked form, NReq=59211965.
 FoFCou: FMM=F IPFlag=           0 FMFlag=           0 FMFlg1=           0
         NFxFlg=           0 DoJE=F BraDBF=F KetDBF=F FulRan=T
         wScrn=  0.000000 ICntrl=       600 IOpCl=  0 I1Cent=           0 NGrid=           0
         NMat0=    1 NMatS0=   3160 NMatT0=    0 NMatD0=    1 NMtDS0=    0 NMtDT0=    0
 Petite list used in FoFCou.
 CoulSu:  requested number of processors reduced to:  22 ShMem   1 Linda.
 UHF open shell SCF:
 Using DIIS extrapolation, IDIIS=  1040.
 NGot=   104857600 LenX=   103516666 LenY=   103507009
 Requested convergence on RMS density matrix=1.00D-08 within 128 cycles.
 Requested convergence on MAX density matrix=1.00D-06.
 Requested convergence on             energy=1.00D-06.
 No special actions if energy rises.

 Cycle   1  Pass 1  IDiag  1:
 Density matrix breaks symmetry, PCut= 1.00D-04
 Density matrix has no symmetry -- integrals replicated.
 E= -460.131067517436    
 DIIS: error= 4.68D-02 at cycle   1 NSaved=   1.
 NSaved= 1 IEnMin= 1 EnMin= -460.131067517436     IErMin= 1 ErrMin= 4.68D-02
 ErrMax= 4.68D-02  0.00D+00 EMaxC= 1.00D-01 BMatC= 2.83D-01 BMatP= 2.83D-01
 IDIUse=3 WtCom= 5.32D-01 WtEn= 4.68D-01
 Coeff-Com:  0.100D+01
 Coeff-En:   0.100D+01
 Coeff:      0.100D+01
 Gap=     0.555 Goal=   None    Shift=    0.000
 Gap=     0.209 Goal=   None    Shift=    0.000
 DSYEVD-2 returned Info=         159 IAlg= 4 N=    79 NDim=    79 NE2=     1310214 trying  DSYEV.
 GapD=    0.209 DampG=1.000 DampE=0.500 DampFc=0.5000 IDamp=-1.
 Damping current iteration by 5.00D-01
 RMSDP=2.20D-03 MaxDP=7.21D-02              OVMax= 6.78D-02

 Cycle   2  Pass 1  IDiag  1:
 Density matrix breaks symmetry, PCut= 1.00D-04
 Density matrix has no symmetry -- integrals replicated.
 E= -460.139771946038     Delta-E=       -0.008704428602 Rises=F Damp=T
 DIIS: error= 2.33D-02 at cycle   2 NSaved=   2.
 NSaved= 2 IEnMin= 2 EnMin= -460.139771946038     IErMin= 2 ErrMin= 2.33D-02
 ErrMax= 2.33D-02  0.00D+00 EMaxC= 1.00D-01 BMatC= 5.11D-02 BMatP= 2.83D-01
 IDIUse=3 WtCom= 7.67D-01 WtEn= 2.33D-01
 Coeff-Com: -0.584D+00 0.158D+01
 Coeff-En:   0.000D+00 0.100D+01
 Coeff:     -0.448D+00 0.145D+01
 Gap=     0.448 Goal=   None    Shift=    0.000
 Gap=     0.213 Goal=   None    Shift=    0.000
 RMSDP=7.62D-04 MaxDP=2.78D-02 DE=-8.70D-03 OVMax= 1.84D-02

 Cycle   3  Pass 1  IDiag  1:
 Density matrix breaks symmetry, PCut= 1.00D-04
 Density matrix has no symmetry -- integrals replicated.
 E= -460.147686180939     Delta-E=       -0.007914234901 Rises=F Damp=F
 DIIS: error= 1.23D-03 at cycle   3 NSaved=   3.
 NSaved= 3 IEnMin= 3 EnMin= -460.147686180939     IErMin= 3 ErrMin= 1.23D-03
 ErrMax= 1.23D-03  0.00D+00 EMaxC= 1.00D-01 BMatC= 2.56D-04 BMatP= 5.11D-02
 IDIUse=3 WtCom= 9.88D-01 WtEn= 1.23D-02
 Coeff-Com: -0.574D-01 0.106D+00 0.951D+00
 Coeff-En:   0.000D+00 0.000D+00 0.100D+01
 Coeff:     -0.567D-01 0.105D+00 0.952D+00
 Gap=     0.453 Goal=   None    Shift=    0.000
 Gap=     0.215 Goal=   None    Shift=    0.000
 RMSDP=9.91D-05 MaxDP=3.38D-03 DE=-7.91D-03 OVMax= 4.73D-03

 Cycle   4  Pass 1  IDiag  1:
 Density matrix breaks symmetry, PCut= 1.00D-04
 Density matrix has no symmetry -- integrals replicated.
 E= -460.147747498808     Delta-E=       -0.000061317869 Rises=F Damp=F
 DIIS: error= 3.10D-04 at cycle   4 NSaved=   4.
 NSaved= 4 IEnMin= 4 EnMin= -460.147747498808     IErMin= 4 ErrMin= 3.10D-04
 ErrMax= 3.10D-04  0.00D+00 EMaxC= 1.00D-01 BMatC= 1.34D-05 BMatP= 2.56D-04
 IDIUse=3 WtCom= 9.97D-01 WtEn= 3.10D-03
 Coeff-Com:  0.197D-01-0.412D-01-0.748D-01 0.110D+01
 Coeff-En:   0.000D+00 0.000D+00 0.000D+00 0.100D+01
 Coeff:      0.196D-01-0.411D-01-0.745D-01 0.110D+01
 Gap=     0.452 Goal=   None    Shift=    0.000
 Gap=     0.215 Goal=   None    Shift=    0.000
 RMSDP=3.16D-05 MaxDP=1.18D-03 DE=-6.13D-05 OVMax= 1.07D-03

 Cycle   5  Pass 1  IDiag  1:
 Density matrix breaks symmetry, PCut= 1.00D-04
 Density matrix has no symmetry -- integrals replicated.
 E= -460.147751473752     Delta-E=       -0.000003974944 Rises=F Damp=F
 DIIS: error= 7.25D-05 at cycle   5 NSaved=   5.
 NSaved= 5 IEnMin= 5 EnMin= -460.147751473752     IErMin= 5 ErrMin= 7.25D-05
 ErrMax= 7.25D-05  0.00D+00 EMaxC= 1.00D-01 BMatC= 8.82D-07 BMatP= 1.34D-05
 IDIUse=1 WtCom= 1.00D+00 WtEn= 0.00D+00
 Coeff-Com:  0.110D-02-0.196D-02-0.619D-01 0.657D-01 0.997D+00
 Coeff:      0.110D-02-0.196D-02-0.619D-01 0.657D-01 0.997D+00
 Gap=     0.453 Goal=   None    Shift=    0.000
 Gap=     0.215 Goal=   None    Shift=    0.000
 RMSDP=6.02D-06 MaxDP=2.16D-04 DE=-3.97D-06 OVMax= 3.25D-04

 Cycle   6  Pass 1  IDiag  1:
 Density matrix breaks symmetry, PCut= 1.00D-04
 Density matrix has no symmetry -- integrals replicated.
 E= -460.147751710643     Delta-E=       -0.000000236891 Rises=F Damp=F
 DIIS: error= 3.60D-06 at cycle   6 NSaved=   6.
 NSaved= 6 IEnMin= 6 EnMin= -460.147751710643     IErMin= 6 ErrMin= 3.60D-06
 ErrMax= 3.60D-06  0.00D+00 EMaxC= 1.00D-01 BMatC= 1.90D-09 BMatP= 8.82D-07
 IDIUse=1 WtCom= 1.00D+00 WtEn= 0.00D+00
 Coeff-Com: -0.863D-05 0.201D-04 0.353D-02-0.944D-02-0.753D-01 0.108D+01
 Coeff:     -0.863D-05 0.201D-04 0.353D-02-0.944D-02-0.753D-01 0.108D+01
 Gap=     0.453 Goal=   None    Shift=    0.000
 Gap=     0.215 Goal=   None    Shift=    0.000
 RMSDP=5.83D-07 MaxDP=3.09D-05 DE=-2.37D-07 OVMax= 1.83D-05

 Cycle   7  Pass 1  IDiag  1:
 Density matrix breaks symmetry, PCut= 1.00D-04
 Density matrix has no symmetry -- integrals replicated.
 E= -460.147751711567     Delta-E=       -0.000000000924 Rises=F Damp=F
 DIIS: error= 6.48D-07 at cycle   7 NSaved=   7.
 NSaved= 7 IEnMin= 7 EnMin= -460.147751711567     IErMin= 7 ErrMin= 6.48D-07
 ErrMax= 6.48D-07  0.00D+00 EMaxC= 1.00D-01 BMatC= 5.56D-11 BMatP= 1.90D-09
 IDIUse=1 WtCom= 1.00D+00 WtEn= 0.00D+00
 Coeff-Com: -0.191D-04 0.370D-04-0.261D-03 0.152D-02 0.840D-02-0.254D+00
 Coeff-Com:  0.124D+01
 Coeff:     -0.191D-04 0.370D-04-0.261D-03 0.152D-02 0.840D-02-0.254D+00
 Coeff:      0.124D+01
 Gap=     0.453 Goal=   None    Shift=    0.000
 Gap=     0.215 Goal=   None    Shift=    0.000
 RMSDP=9.60D-08 MaxDP=4.87D-06 DE=-9.24D-10 OVMax= 2.85D-06

 Cycle   8  Pass 1  IDiag  1:
 Density matrix breaks symmetry, PCut= 1.00D-04
 Density matrix has no symmetry -- integrals replicated.
 E= -460.147751711593     Delta-E=       -0.000000000027 Rises=F Damp=F
 DIIS: error= 7.01D-08 at cycle   8 NSaved=   8.
 NSaved= 8 IEnMin= 8 EnMin= -460.147751711593     IErMin= 8 ErrMin= 7.01D-08
 ErrMax= 7.01D-08  0.00D+00 EMaxC= 1.00D-01 BMatC= 9.70D-13 BMatP= 5.56D-11
 IDIUse=1 WtCom= 1.00D+00 WtEn= 0.00D+00
 Coeff-Com:  0.439D-05-0.854D-05-0.308D-04-0.973D-04 0.354D-03 0.211D-01
 Coeff-Com: -0.213D+00 0.119D+01
 Coeff:      0.439D-05-0.854D-05-0.308D-04-0.973D-04 0.354D-03 0.211D-01
 Coeff:     -0.213D+00 0.119D+01
 Gap=     0.453 Goal=   None    Shift=    0.000
 Gap=     0.215 Goal=   None    Shift=    0.000
 RMSDP=1.12D-08 MaxDP=3.45D-07 DE=-2.68D-11 OVMax= 6.12D-07

 Cycle   9  Pass 1  IDiag  1:
 Density matrix breaks symmetry, PCut= 1.00D-04
 Density matrix has no symmetry -- integrals replicated.
 E= -460.147751711594     Delta-E=       -0.000000000001 Rises=F Damp=F
 DIIS: error= 2.62D-08 at cycle   9 NSaved=   9.
 NSaved= 9 IEnMin= 9 EnMin= -460.147751711594     IErMin= 9 ErrMin= 2.62D-08
 ErrMax= 2.62D-08  0.00D+00 EMaxC= 1.00D-01 BMatC= 3.52D-14 BMatP= 9.70D-13
 IDIUse=1 WtCom= 1.00D+00 WtEn= 0.00D+00
 Coeff-Com: -0.314D-06 0.576D-06 0.874D-05-0.897D-05-0.148D-03 0.528D-03
 Coeff-Com:  0.107D-01-0.127D+00 0.112D+01
 Coeff:     -0.314D-06 0.576D-06 0.874D-05-0.897D-05-0.148D-03 0.528D-03
 Coeff:      0.107D-01-0.127D+00 0.112D+01
 Gap=     0.453 Goal=   None    Shift=    0.000
 Gap=     0.215 Goal=   None    Shift=    0.000
 RMSDP=3.15D-09 MaxDP=1.02D-07 DE=-6.82D-13 OVMax= 4.78D-07

 Density matrix breaks symmetry, PCut= 1.00D-04
 Density matrix has no symmetry -- integrals replicated.
 SCF Done:  E(UM062X) =  -460.147751712     A.U. after    9 cycles
            NFock=  9  Conv=0.31D-08     -V/T= 2.0013
 <Sx>= 0.0000 <Sy>= 0.0000 <Sz>= 0.5000 <S**2>= 0.7530 S= 0.5015
 <L.S>= 0.000000000000E+00
 KE= 4.595412270233D+02 PE=-1.094618361569D+03 EE= 1.749293828346D+02
 Annihilation of the first spin contaminant:
 S**2 before annihilation     0.7530,   after     0.7500
 Leave Link  502 at Sun Apr 18 00:28:58 2021, MaxMem=   104857600 cpu:            4941.7 elap:             106.1
 (Enter /s/ls4/users/knvvv/bin/g16sse/l601.exe)
 Copying SCF densities to generalized density rwf, IOpCl= 1 IROHF=0.
 SCF density gives NOpUse=  1 NOpAll= 48.
 Marking SCF density as not fully symmetric.

 **********************************************************************

            Population analysis using the SCF density.

 **********************************************************************

 Orbital symmetries:
 Alpha Orbitals:
       Occupied  (A1G) (A1G) (T1U) (T1U) (T1U) (?A) (?B) (?B) (?B)
       Virtual   (T1U) (T1U) (T1U) (A1G) (?A) (?A) (?A) (?A) (?A)
                 (?B) (?B) (?B) (?A) (?A) (?A) (?A) (?A) (?A) (?B)
                 (?B) (?B) (?A) (?B) (?B) (?B) (?A) (?A) (?B) (?B)
                 (?A) (?A) (?B) (?B) (?A) (?A) (?A) (?A) (?A) (?A)
                 (?A) (?A) (?A) (?A) (?A) (?A) (?A) (?A) (?A) (?C)
                 (?C) (?C) (?C) (?C) (?C) (?C) (?C) (?C) (?C) (A1G)
                 (?D) (?D) (?D) (?D) (?D) (A1G) (T1U) (T1U) (T1U)
                 (A1G) (A1G)
 Beta  Orbitals:
       Occupied  (A1G) (A1G) (T1U) (T1U) (T1U) (?A) (?B) (?B)
       Virtual   (?B) (?B) (?B) (?A) (?B) (?A) (?A) (?A) (?A) (?A)
                 (?B) (?B) (?B) (?A) (?A) (?A) (?A) (?A) (?A) (?B)
                 (?B) (?B) (?B) (?A) (?B) (?B) (?A) (?A) (?B) (?B)
                 (?B) (?B) (?A) (?A) (?A) (?C) (?C) (?C) (?C) (?C)
                 (?C) (?C) (?C) (?C) (?C) (?C) (?C) (?C) (?C) (?B)
                 (?B) (?B) (?B) (?B) (?B) (?B) (?B) (?B) (?B) (A1G)
                 (?D) (?D) (?D) (?D) (?D) (A1G) (T1U) (T1U) (T1U)
                 (A1G) (A1G)
 Unable to determine electronic state:  an orbital has unidentified symmetry.
 Alpha  occ. eigenvalues -- -102.70246  -9.85160  -7.59088  -7.56983  -7.56983
 Alpha  occ. eigenvalues --   -0.94398  -0.46989  -0.42248  -0.42248
 Alpha virt. eigenvalues --    0.03020   0.03572   0.03572   0.05264   0.17158
 Alpha virt. eigenvalues --    0.17351   0.17351   0.17769   0.17769   0.30137
 Alpha virt. eigenvalues --    0.30267   0.30267   0.45420   0.46357   0.46357
 Alpha virt. eigenvalues --    0.48546   0.48546   0.49089   1.12996   1.16298
 Alpha virt. eigenvalues --    1.16298   1.30436   1.30575   1.31037   1.31037
 Alpha virt. eigenvalues --    1.31172   1.31172   1.32127   1.32127   1.33735
 Alpha virt. eigenvalues --    1.33735   1.33885   1.33885   2.07394   3.29486
 Alpha virt. eigenvalues --    3.30371   3.30371   3.33411   3.33411   3.49371
 Alpha virt. eigenvalues --    3.49793   3.49793   3.50829   3.50829   3.52529
 Alpha virt. eigenvalues --    3.52529   3.55004   3.55004   3.79343   3.80175
 Alpha virt. eigenvalues --    3.80175   3.82509   3.82509   3.86416   3.86416
 Alpha virt. eigenvalues --    3.87758   3.92608   3.92608   8.18370  10.66686
 Alpha virt. eigenvalues --   10.67832  10.67832  10.71103  10.71103  28.30352
 Alpha virt. eigenvalues --   41.96308  41.98885  41.98885  98.11768 523.84746
  Beta  occ. eigenvalues -- -102.69136  -9.84858  -7.56626  -7.56626  -7.56175
  Beta  occ. eigenvalues --   -0.87757  -0.40221  -0.40221
  Beta virt. eigenvalues --   -0.18691   0.03620   0.03620   0.04026   0.04242
  Beta virt. eigenvalues --    0.15053   0.16490   0.16490   0.17821   0.17821
  Beta virt. eigenvalues --    0.27099   0.29805   0.29805   0.48197   0.48824
  Beta virt. eigenvalues --    0.48824   0.49463   0.49463   0.50314   1.14369
  Beta virt. eigenvalues --    1.16907   1.16907   1.30669   1.30842   1.31916
  Beta virt. eigenvalues --    1.31916   1.32278   1.32278   1.32688   1.32688
  Beta virt. eigenvalues --    1.33801   1.33801   1.34420   1.34420   2.10378
  Beta virt. eigenvalues --    3.32840   3.33792   3.33792   3.33969   3.33969
  Beta virt. eigenvalues --    3.53918   3.53918   3.54569   3.54644   3.54644
  Beta virt. eigenvalues --    3.54775   3.54775   3.54836   3.54836   3.87184
  Beta virt. eigenvalues --    3.87184   3.87247   3.87247   3.89412   3.89413
  Beta virt. eigenvalues --    3.89490   3.93911   3.94085   3.94085   8.22779
  Beta virt. eigenvalues --   10.72459  10.72459  10.74702  10.74702  10.75670
  Beta virt. eigenvalues --   28.36329  41.99910  41.99910  42.02832  98.14468
  Beta virt. eigenvalues --  523.83717
          Condensed to atoms (all electrons):
               1
     1  Cl  17.000000
          Atomic-Atomic Spin Densities.
               1
     1  Cl   1.000000
 Mulliken charges and spin densities:
               1          2
     1  Cl  -0.000000   1.000000
 Sum of Mulliken charges =  -0.00000   1.00000
 Mulliken charges and spin densities with hydrogens summed into heavy atoms:
               1          2
     1  Cl  -0.000000   1.000000
 Electronic spatial extent (au):  <R**2>=             27.6429
 Charge=             -0.0000 electrons
 Dipole moment (field-independent basis, Debye):
    X=              0.0000    Y=              0.0000    Z=             -0.0000  Tot=              0.0000
 Quadrupole moment (field-independent basis, Debye-Ang):
   XX=            -13.0926   YY=            -11.9434   ZZ=            -12.1446
   XY=             -0.0000   XZ=              0.0000   YZ=             -1.0438
 Traceless Quadrupole moment (field-independent basis, Debye-Ang):
   XX=             -0.6991   YY=              0.4501   ZZ=              0.2489
   XY=             -0.0000   XZ=              0.0000   YZ=             -1.0438
 Octapole moment (field-independent basis, Debye-Ang**2):
  XXX=              0.0000  YYY=              0.0000  ZZZ=             -0.0000  XYY=             -0.0000
  XXY=              0.0000  XXZ=             -0.0000  XZZ=              0.0000  YZZ=              0.0000
  YYZ=             -0.0000  XYZ=             -0.0000
 Hexadecapole moment (field-independent basis, Debye-Ang**3):
 XXXX=            -15.6366 YYYY=            -13.1656 ZZZZ=            -13.6003 XXXY=             -0.0000
 XXXZ=              0.0000 YYYX=             -0.0000 YYYZ=             -1.1288 ZZZX=              0.0000
 ZZZY=             -1.1265 XXYY=             -4.8028 XXZZ=             -4.8745 YYZZ=             -4.4531
 XXYZ=             -0.3719 YYXZ=              0.0000 ZZXY=             -0.0000
 N-N= 0.000000000000D+00 E-N=-1.094618361523D+03  KE= 4.595412270233D+02
                          Isotropic Fermi Contact Couplings
        Atom                 a.u.       MegaHertz       Gauss      10(-4) cm-1
     1  Cl(35)            -0.06337     -27.78593      -9.91471      -9.26839
 PrsmSu:  requested number of processors reduced to:  21 ShMem   1 Linda.
 --------------------------------------------------------
       Center         ----  Spin Dipole Couplings  ----
                      3XX-RR        3YY-RR        3ZZ-RR
 --------------------------------------------------------
     1   Atom       -3.093902      1.992140      1.101762
 --------------------------------------------------------
                        XY            XZ            YZ
 --------------------------------------------------------
     1   Atom        0.000000     -0.000000     -4.619451
 --------------------------------------------------------


 ---------------------------------------------------------------------------------
              Anisotropic Spin Dipole Couplings in Principal Axis System
 ---------------------------------------------------------------------------------

       Atom             a.u.   MegaHertz   Gauss  10(-4) cm-1        Axes

              Baa    -3.0939  -161.928   -57.780   -54.013 -0.0000  0.6723  0.7402
     1 Cl(35) Bbb    -3.0939  -161.928   -57.780   -54.013  1.0000  0.0000  0.0000
              Bcc     6.1878   323.855   115.560   108.026  0.0000  0.7402 -0.6723
 

 ---------------------------------------------------------------------------------

 PrsmSu:  requested number of processors reduced to:  21 ShMem   1 Linda.
 No NMR shielding tensors so no spin-rotation constants.
 Leave Link  601 at Sun Apr 18 00:29:08 2021, MaxMem=   104857600 cpu:             437.8 elap:               9.5
 (Enter /s/ls4/users/knvvv/bin/g16sse/l801.exe)
 DoSCS=F DFT=T ScalE2(SS,OS)=  1.000000  1.000000
 Range of M.O.s used for correlation:     1    79
 NBasis=    79 NAE=     9 NBE=     8 NFC=     0 NFV=     0
 NROrb=     79 NOA=     9 NOB=     8 NVA=    70 NVB=    71

 **** Warning!!: The largest alpha MO coefficient is  0.10130017D+02


 **** Warning!!: The largest beta MO coefficient is  0.10137048D+02

 Leave Link  801 at Sun Apr 18 00:29:08 2021, MaxMem=   104857600 cpu:               6.8 elap:               0.2
 (Enter /s/ls4/users/knvvv/bin/g16sse/l914.exe)
 UHF ground state
 Doing stability rather than CIS.
 Keep R1 and R2 ints in memory in symmetry-blocked form, NReq=94998226.
 FoFCou: FMM=F IPFlag=           0 FMFlag=           0 FMFlg1=           0
         NFxFlg=           0 DoJE=F BraDBF=F KetDBF=F FulRan=T
         wScrn=  0.000000 ICntrl=       600 IOpCl=  0 I1Cent=           0 NGrid=           0
         NMat0=    1 NMatS0=   3160 NMatT0=    0 NMatD0=    1 NMtDS0=    0 NMtDT0=    0
 Petite list used in FoFCou.
 CoulSu:  requested number of processors reduced to:  22 ShMem   1 Linda.
 MDV=   104857600 DFT=T DoStab=T Mixed=T DoRPA=F DoScal=F NonHer=F
 Making orbital integer symmetry assigments:
 Orbital symmetries:
 Alpha Orbitals:
       Occupied  (A1G) (A1G) (T1U) (T1U) (T1U) (?A) (?B) (?B) (?B)
       Virtual   (T1U) (T1U) (T1U) (A1G) (?A) (?A) (?A) (?A) (?A)
                 (?B) (?B) (?B) (?A) (?A) (?A) (?A) (?A) (?A) (?B)
                 (?B) (?B) (?A) (?B) (?B) (?B) (?A) (?A) (?B) (?B)
                 (?A) (?A) (?B) (?B) (?A) (?A) (?A) (?A) (?A) (?A)
                 (?A) (?A) (?A) (?A) (?A) (?A) (?A) (?A) (?A) (?C)
                 (?C) (?C) (?C) (?C) (?C) (?C) (?C) (?C) (?C) (A1G)
                 (?D) (?D) (?D) (?D) (?D) (A1G) (T1U) (T1U) (T1U)
                 (A1G) (A1G)
 Beta  Orbitals:
       Occupied  (A1G) (A1G) (T1U) (T1U) (T1U) (?A) (?B) (?B)
       Virtual   (?B) (?B) (?B) (?A) (?B) (?A) (?A) (?A) (?A) (?A)
                 (?B) (?B) (?B) (?A) (?A) (?A) (?A) (?A) (?A) (?B)
                 (?B) (?B) (?B) (?A) (?B) (?B) (?A) (?A) (?B) (?B)
                 (?B) (?B) (?A) (?A) (?A) (?C) (?C) (?C) (?C) (?C)
                 (?C) (?C) (?C) (?C) (?C) (?C) (?C) (?C) (?C) (?B)
                 (?B) (?B) (?B) (?B) (?B) (?B) (?B) (?B) (?B) (A1G)
                 (?D) (?D) (?D) (?D) (?D) (A1G) (T1U) (T1U) (T1U)
                 (A1G) (A1G)
    24 initial guesses have been made.
 Convergence on wavefunction:    0.001000000000000
 Davidson Disk Diagonalization:  ConvIn= 1.00D-03 SkipCon=T Conv= 1.00D-03.
 Max sub-space:  2000 roots to seek:    24 dimension of matrix:         1198
 Iteration     1 Dimension    24 NMult     0 NNew     24
 CISAX will form    24 AO SS matrices at one time.
 NMat=    24 NSing=    24 JSym2X= 2.
 Excitation Energies [eV] at current iteration:
 Root      1 :     0.391324964064471
 Root      2 :     0.391362698522348
 Root      3 :     9.383682282853448
 Root      4 :     9.383865146026967
 Root      5 :     9.785535153160131
 Root      6 :     9.811777969094992
 Root      7 :     9.812262765040847
 Root      8 :     9.826978397774695
 Root      9 :     9.827022565287546
 Root     10 :     9.920147541500867
 Root     11 :    10.044661357158250
 Root     12 :    10.044662039387950
 Root     13 :    10.203137529187140
 Root     14 :    10.203149069077060
 Root     15 :    10.321951247419090
 Root     16 :    10.352532013629200
 Root     17 :    10.352533154414620
 Root     18 :    10.885012763058940
 Root     19 :    11.189060064438350
 Root     20 :    11.615680602140240
 Root     21 :    11.615681048145920
 Root     22 :    11.896899328091490
 Root     23 :    12.204290384919130
 Root     24 :    12.204685926118290
 Iteration     2 Dimension    48 NMult    24 NNew     24
 CISAX will form    24 AO SS matrices at one time.
 NMat=    24 NSing=    24 JSym2X= 2.
 Root      1 not converged, maximum delta is    0.093388269500435
 Excitation Energies [eV] at current iteration:
 Root      1 :     0.005249928009158   Change is   -0.386075036055313
 Root      2 :     0.005286388227253   Change is   -0.386076310295095
 Root      3 :     9.207881956200337   Change is   -0.175800326653111
 Root      4 :     9.208040241469009   Change is   -0.175824904557958
 Root      5 :     9.724282121505267   Change is   -0.102696276269427
 Root      6 :     9.724324474499692   Change is   -0.102698090787853
 Root      7 :     9.733125813468821   Change is   -0.052409339691311
 Root      8 :     9.755264860584839   Change is   -0.056513108510153
 Root      9 :     9.755731568452187   Change is   -0.056531196588659
 Root     10 :     9.821663017765720   Change is   -0.098484523735147
 Root     11 :     9.841397079990443   Change is   -0.203264277167807
 Root     12 :     9.841402479189831   Change is   -0.203259560198115
 Root     13 :    10.116816419615380   Change is   -0.086321109571752
 Root     14 :    10.116824466939980   Change is   -0.086324602137081
 Root     15 :    10.236043814051400   Change is   -0.116488199577800
 Root     16 :    10.236044949265560   Change is   -0.116488205149059
 Root     17 :    10.270429363643310   Change is   -0.051521883775784
 Root     18 :    10.675024350705380   Change is   -0.209988412353565
 Root     19 :    10.994820277764800   Change is   -0.194239786673550
 Root     20 :    11.518618999361480   Change is   -0.097061602778766
 Root     21 :    11.518619343845860   Change is   -0.097061704300062
 Root     22 :    11.642744316427980   Change is   -0.254155011663507
 Root     23 :    11.931332672567250   Change is   -0.272957712351877
 Root     24 :    11.931709107406230   Change is   -0.272976818712059
 Iteration     3 Dimension    51 NMult    48 NNew      3
 CISAX will form     3 AO SS matrices at one time.
 NMat=     3 NSing=     3 JSym2X= 2.
 Root      1 not converged, maximum delta is    0.007764532647383
 Excitation Energies [eV] at current iteration:
 Root      1 :    -0.000067277232173   Change is   -0.005317205241331
 Root      2 :    -0.000030909733058   Change is   -0.005317297960312
 Root      3 :     9.194824737959904   Change is   -0.013057218240434
 Iteration     4 Dimension    54 NMult    51 NNew      3
 CISAX will form     3 AO SS matrices at one time.
 NMat=     3 NSing=     3 JSym2X= 2.
 Root      1 has converged.
 Excitation Energies [eV] at current iteration:
 Root      1 :    -0.000085469861055   Change is   -0.000018192628881
 Root      2 :    -0.000049099447398   Change is   -0.000018189714340
 Root      3 :     9.193022022827840   Change is   -0.001802715132064
 Convergence achieved on expansion vectors.
 ***********************************************************************
 Stability analysis using <AA,BB:AA,BB> singles matrix:
 ***********************************************************************
 1PDM for each excited state written to RWF  633
 Ground to excited state transition densities written to RWF  633

 Eigenvectors of the stability matrix:
 
 Excited state symmetry could not be determined.
 Eigenvector   1:  2.010-?Sym  Eigenvalue=-0.0000031  <S**2>=0.760
      8B ->  9B        0.98851
 The wavefunction is stable under the perturbations considered.
 Leave Link  914 at Sun Apr 18 00:29:24 2021, MaxMem=   104857600 cpu:             726.2 elap:              15.8
 (Enter /s/ls4/users/knvvv/bin/g16sse/l508.exe)
 The wavefunction is already stable.
 Leave Link  508 at Sun Apr 18 00:29:24 2021, MaxMem=   104857600 cpu:               2.2 elap:               0.1
 (Enter /s/ls4/users/knvvv/bin/g16sse/l601.exe)
 Copying SCF densities to generalized density rwf, IOpCl= 1 IROHF=0.
 SCF density gives NOpUse=  1 NOpAll= 48.
 Marking SCF density as not fully symmetric.

 **********************************************************************

            Population analysis using the SCF density.

 **********************************************************************

 Orbital symmetries:
 Alpha Orbitals:
       Occupied  (A1G) (A1G) (T1U) (T1U) (T1U) (?A) (?B) (?B) (?B)
       Virtual   (T1U) (T1U) (T1U) (A1G) (?A) (?A) (?A) (?A) (?A)
                 (?B) (?B) (?B) (?A) (?A) (?A) (?A) (?A) (?A) (?B)
                 (?B) (?B) (?A) (?B) (?B) (?B) (?A) (?A) (?B) (?B)
                 (?A) (?A) (?B) (?B) (?A) (?A) (?A) (?A) (?A) (?A)
                 (?A) (?A) (?A) (?A) (?A) (?A) (?A) (?A) (?A) (?C)
                 (?C) (?C) (?C) (?C) (?C) (?C) (?C) (?C) (?C) (A1G)
                 (?D) (?D) (?D) (?D) (?D) (A1G) (T1U) (T1U) (T1U)
                 (A1G) (A1G)
 Beta  Orbitals:
       Occupied  (A1G) (A1G) (T1U) (T1U) (T1U) (?A) (?B) (?B)
       Virtual   (?B) (?B) (?B) (?A) (?B) (?A) (?A) (?A) (?A) (?A)
                 (?B) (?B) (?B) (?A) (?A) (?A) (?A) (?A) (?A) (?B)
                 (?B) (?B) (?B) (?A) (?B) (?B) (?A) (?A) (?B) (?B)
                 (?B) (?B) (?A) (?A) (?A) (?C) (?C) (?C) (?C) (?C)
                 (?C) (?C) (?C) (?C) (?C) (?C) (?C) (?C) (?C) (?B)
                 (?B) (?B) (?B) (?B) (?B) (?B) (?B) (?B) (?B) (A1G)
                 (?D) (?D) (?D) (?D) (?D) (A1G) (T1U) (T1U) (T1U)
                 (A1G) (A1G)
 Unable to determine electronic state:  an orbital has unidentified symmetry.
 Alpha  occ. eigenvalues -- -102.70246  -9.85160  -7.59088  -7.56983  -7.56983
 Alpha  occ. eigenvalues --   -0.94398  -0.46989  -0.42248  -0.42248
 Alpha virt. eigenvalues --    0.03020   0.03572   0.03572   0.05264   0.17158
 Alpha virt. eigenvalues --    0.17351   0.17351   0.17769   0.17769   0.30137
 Alpha virt. eigenvalues --    0.30267   0.30267   0.45420   0.46357   0.46357
 Alpha virt. eigenvalues --    0.48546   0.48546   0.49089   1.12996   1.16298
 Alpha virt. eigenvalues --    1.16298   1.30436   1.30575   1.31037   1.31037
 Alpha virt. eigenvalues --    1.31172   1.31172   1.32127   1.32127   1.33735
 Alpha virt. eigenvalues --    1.33735   1.33885   1.33885   2.07394   3.29486
 Alpha virt. eigenvalues --    3.30371   3.30371   3.33411   3.33411   3.49371
 Alpha virt. eigenvalues --    3.49793   3.49793   3.50829   3.50829   3.52529
 Alpha virt. eigenvalues --    3.52529   3.55004   3.55004   3.79343   3.80175
 Alpha virt. eigenvalues --    3.80175   3.82509   3.82509   3.86416   3.86416
 Alpha virt. eigenvalues --    3.87758   3.92608   3.92608   8.18370  10.66686
 Alpha virt. eigenvalues --   10.67832  10.67832  10.71103  10.71103  28.30352
 Alpha virt. eigenvalues --   41.96308  41.98885  41.98885  98.11768 523.84746
  Beta  occ. eigenvalues -- -102.69136  -9.84858  -7.56626  -7.56626  -7.56175
  Beta  occ. eigenvalues --   -0.87757  -0.40221  -0.40221
  Beta virt. eigenvalues --   -0.18691   0.03620   0.03620   0.04026   0.04242
  Beta virt. eigenvalues --    0.15053   0.16490   0.16490   0.17821   0.17821
  Beta virt. eigenvalues --    0.27099   0.29805   0.29805   0.48197   0.48824
  Beta virt. eigenvalues --    0.48824   0.49463   0.49463   0.50314   1.14369
  Beta virt. eigenvalues --    1.16907   1.16907   1.30669   1.30842   1.31916
  Beta virt. eigenvalues --    1.31916   1.32278   1.32278   1.32688   1.32688
  Beta virt. eigenvalues --    1.33801   1.33801   1.34420   1.34420   2.10378
  Beta virt. eigenvalues --    3.32840   3.33792   3.33792   3.33969   3.33969
  Beta virt. eigenvalues --    3.53918   3.53918   3.54569   3.54644   3.54644
  Beta virt. eigenvalues --    3.54775   3.54775   3.54836   3.54836   3.87184
  Beta virt. eigenvalues --    3.87184   3.87247   3.87247   3.89412   3.89413
  Beta virt. eigenvalues --    3.89490   3.93911   3.94085   3.94085   8.22779
  Beta virt. eigenvalues --   10.72459  10.72459  10.74702  10.74702  10.75670
  Beta virt. eigenvalues --   28.36329  41.99910  41.99910  42.02832  98.14468
  Beta virt. eigenvalues --  523.83717
          Condensed to atoms (all electrons):
               1
     1  Cl  17.000000
          Atomic-Atomic Spin Densities.
               1
     1  Cl   1.000000
 Mulliken charges and spin densities:
               1          2
     1  Cl  -0.000000   1.000000
 Sum of Mulliken charges =  -0.00000   1.00000
 Mulliken charges and spin densities with hydrogens summed into heavy atoms:
               1          2
     1  Cl  -0.000000   1.000000
 Electronic spatial extent (au):  <R**2>=             27.6429
 Charge=             -0.0000 electrons
 Dipole moment (field-independent basis, Debye):
    X=              0.0000    Y=              0.0000    Z=             -0.0000  Tot=              0.0000
 Quadrupole moment (field-independent basis, Debye-Ang):
   XX=            -13.0926   YY=            -11.9434   ZZ=            -12.1446
   XY=             -0.0000   XZ=              0.0000   YZ=             -1.0438
 Traceless Quadrupole moment (field-independent basis, Debye-Ang):
   XX=             -0.6991   YY=              0.4501   ZZ=              0.2489
   XY=             -0.0000   XZ=              0.0000   YZ=             -1.0438
 Octapole moment (field-independent basis, Debye-Ang**2):
  XXX=              0.0000  YYY=              0.0000  ZZZ=             -0.0000  XYY=             -0.0000
  XXY=              0.0000  XXZ=             -0.0000  XZZ=              0.0000  YZZ=              0.0000
  YYZ=             -0.0000  XYZ=             -0.0000
 Hexadecapole moment (field-independent basis, Debye-Ang**3):
 XXXX=            -15.6366 YYYY=            -13.1656 ZZZZ=            -13.6003 XXXY=             -0.0000
 XXXZ=              0.0000 YYYX=             -0.0000 YYYZ=             -1.1288 ZZZX=              0.0000
 ZZZY=             -1.1265 XXYY=             -4.8028 XXZZ=             -4.8745 YYZZ=             -4.4531
 XXYZ=             -0.3719 YYXZ=              0.0000 ZZXY=             -0.0000
 N-N= 0.000000000000D+00 E-N=-1.094618361523D+03  KE= 4.595412270233D+02
                          Isotropic Fermi Contact Couplings
        Atom                 a.u.       MegaHertz       Gauss      10(-4) cm-1
     1  Cl(35)            -0.06337     -27.78593      -9.91471      -9.26839
 PrsmSu:  requested number of processors reduced to:  21 ShMem   1 Linda.
 --------------------------------------------------------
       Center         ----  Spin Dipole Couplings  ----
                      3XX-RR        3YY-RR        3ZZ-RR
 --------------------------------------------------------
     1   Atom       -3.093902      1.992140      1.101762
 --------------------------------------------------------
                        XY            XZ            YZ
 --------------------------------------------------------
     1   Atom        0.000000     -0.000000     -4.619451
 --------------------------------------------------------


 ---------------------------------------------------------------------------------
              Anisotropic Spin Dipole Couplings in Principal Axis System
 ---------------------------------------------------------------------------------

       Atom             a.u.   MegaHertz   Gauss  10(-4) cm-1        Axes

              Baa    -3.0939  -161.928   -57.780   -54.013 -0.0000  0.6723  0.7402
     1 Cl(35) Bbb    -3.0939  -161.928   -57.780   -54.013  1.0000  0.0000  0.0000
              Bcc     6.1878   323.855   115.560   108.026  0.0000  0.7402 -0.6723
 

 ---------------------------------------------------------------------------------

 PrsmSu:  requested number of processors reduced to:  21 ShMem   1 Linda.
 No NMR shielding tensors so no spin-rotation constants.
 Leave Link  601 at Sun Apr 18 00:29:34 2021, MaxMem=   104857600 cpu:             469.9 elap:              10.2
 (Enter /s/ls4/users/knvvv/bin/g16sse/l9999.exe)

 Test job not archived.
 1\1\GINC-N153\Stability\UM062X\Gen\Cl1(2)\KNVVV\18-Apr-2021\0\\#P M062
 X/GEN Integral=UltraFineGrid SCF=NoSymm Stable=(RExt, Opt) IOp(1/33=1)
 \\Database calculations.\\0,2\Cl,0,0.,0.,0.\\Version=ES64L-G16RevA.03\
 HF=-460.1477517\S2=0.753013\S2-1=0.\S2A=0.750004\RMSD=3.148e-09\Dipole
 =0.,0.,0.\Quadrupole=0.185087,0.3346654,-0.5197525,-0.7760333,0.,0.\PG
 =OH [O(Cl1)]\\@


 REPARTEE - WHAT YOU THINK OF AFTER YOU BECOME A DEPARTEE.
 Job cpu time:       0 days  2 hours  4 minutes 53.2 seconds.
 Elapsed time:       0 days  0 hours  2 minutes 42.8 seconds.
 File lengths (MBytes):  RWF=     54 Int=      0 D2E=      0 Chk=      2 Scr=      1
 Normal termination of Gaussian 16 at Sun Apr 18 00:29:34 2021.
