 Entering Gaussian System, Link 0=/s/ls4/users/knvvv/bin/g16sse/g16
 Input=data/database/M062X--def2-QZVPPD--216_o2_W4-11.gjf
 Output=data/database/M062X--def2-QZVPPD--216_o2_W4-11.log
 Initial command:
 /s/ls4/users/knvvv/bin/g16sse/l1.exe "/s/ls4/users/knvvv/bin/scratch/Gau-19050.inp" -scrdir="/s/ls4/users/knvvv/bin/scratch/"
 Entering Link 1 = /s/ls4/users/knvvv/bin/g16sse/l1.exe PID=     19051.
  
 Copyright (c) 1988,1990,1992,1993,1995,1998,2003,2009,2016,
            Gaussian, Inc.  All Rights Reserved.
  
 This is part of the Gaussian(R) 16 program.  It is based on
 the Gaussian(R) 09 system (copyright 2009, Gaussian, Inc.),
 the Gaussian(R) 03 system (copyright 2003, Gaussian, Inc.),
 the Gaussian(R) 98 system (copyright 1998, Gaussian, Inc.),
 the Gaussian(R) 94 system (copyright 1995, Gaussian, Inc.),
 the Gaussian 92(TM) system (copyright 1992, Gaussian, Inc.),
 the Gaussian 90(TM) system (copyright 1990, Gaussian, Inc.),
 the Gaussian 88(TM) system (copyright 1988, Gaussian, Inc.),
 the Gaussian 86(TM) system (copyright 1986, Carnegie Mellon
 University), and the Gaussian 82(TM) system (copyright 1983,
 Carnegie Mellon University). Gaussian is a federally registered
 trademark of Gaussian, Inc.
  
 This software contains proprietary and confidential information,
 including trade secrets, belonging to Gaussian, Inc.
  
 This software is provided under written license and may be
 used, copied, transmitted, or stored only in accord with that
 written license.
  
 The following legend is applicable only to US Government
 contracts under FAR:
  
                    RESTRICTED RIGHTS LEGEND
  
 Use, reproduction and disclosure by the US Government is
 subject to restrictions as set forth in subparagraphs (a)
 and (c) of the Commercial Computer Software - Restricted
 Rights clause in FAR 52.227-19.
  
 Gaussian, Inc.
 340 Quinnipiac St., Bldg. 40, Wallingford CT 06492
  
  
 ---------------------------------------------------------------
 Warning -- This program may not be used in any manner that
 competes with the business of Gaussian, Inc. or will provide
 assistance to any competitor of Gaussian, Inc.  The licensee
 of this program is prohibited from giving any competitor of
 Gaussian, Inc. access to this program.  By using this program,
 the user acknowledges that Gaussian, Inc. is engaged in the
 business of creating and licensing software in the field of
 computational chemistry and represents and warrants to the
 licensee that it is not a competitor of Gaussian, Inc. and that
 it will not use this program in any manner prohibited above.
 ---------------------------------------------------------------
  

 Cite this work as:
 Gaussian 16, Revision A.03,
 M. J. Frisch, G. W. Trucks, H. B. Schlegel, G. E. Scuseria, 
 M. A. Robb, J. R. Cheeseman, G. Scalmani, V. Barone, 
 G. A. Petersson, H. Nakatsuji, X. Li, M. Caricato, A. V. Marenich, 
 J. Bloino, B. G. Janesko, R. Gomperts, B. Mennucci, H. P. Hratchian, 
 J. V. Ortiz, A. F. Izmaylov, J. L. Sonnenberg, D. Williams-Young, 
 F. Ding, F. Lipparini, F. Egidi, J. Goings, B. Peng, A. Petrone, 
 T. Henderson, D. Ranasinghe, V. G. Zakrzewski, J. Gao, N. Rega, 
 G. Zheng, W. Liang, M. Hada, M. Ehara, K. Toyota, R. Fukuda, 
 J. Hasegawa, M. Ishida, T. Nakajima, Y. Honda, O. Kitao, H. Nakai, 
 T. Vreven, K. Throssell, J. A. Montgomery, Jr., J. E. Peralta, 
 F. Ogliaro, M. J. Bearpark, J. J. Heyd, E. N. Brothers, K. N. Kudin, 
 V. N. Staroverov, T. A. Keith, R. Kobayashi, J. Normand, 
 K. Raghavachari, A. P. Rendell, J. C. Burant, S. S. Iyengar, 
 J. Tomasi, M. Cossi, J. M. Millam, M. Klene, C. Adamo, R. Cammi, 
 J. W. Ochterski, R. L. Martin, K. Morokuma, O. Farkas, 
 J. B. Foresman, and D. J. Fox, Gaussian, Inc., Wallingford CT, 2016.
 
 ******************************************
 Gaussian 16:  ES64L-G16RevA.03 25-Dec-2016
                17-Apr-2021 
 ******************************************
 %RWF=temp5_6854,70GB
 %nprocshared=48
 Will use up to   48 processors via shared memory.
 Default route: MaxDisk=80GB
 ----------------------------------------------------------------------
 #P M062X/GEN Integral=UltraFineGrid SCF=NoSymm Stable=(RExt, Opt) IOp(
 1/33=1)
 ----------------------------------------------------------------------
 1/33=1,38=1,172=1/1;
 2/12=2,17=6,18=5,40=1/2;
 3/5=7,11=2,25=1,30=1,74=-55,75=-5/1,2,3;
 4/9=2/1;
 5/5=2,38=5/2;
 6/7=2,8=2,9=2,10=2,28=1/1;
 8/6=1,10=90,11=11/1;
 9/8=-3,42=1,46=1/14;
 5/5=2,8=3,17=40,38=5/8(-2);
 6/7=2,8=2,9=2,10=2,28=1/1;
 99/5=1,9=1/99;
 Leave Link    1 at Sat Apr 17 20:12:16 2021, MaxMem=           0 cpu:               9.4 elap:               0.2
 (Enter /s/ls4/users/knvvv/bin/g16sse/l101.exe)
 ONIOM data not found on unit 2.
 ----------------------
 Database calculations.
 ----------------------
 TstMul:  ICh=     0
 TstMul:  Mul=     3
 TstMul:  ICh=     0
 TstMul:  Mul=     3
 Symbolic Z-matrix:
 Charge =  0 Multiplicity = 3
 O                     0.        0.        0. 
 O                     0.        0.        1.2078 
 
 RdStrC is calling ZToCFu for IStruc=1 NZ=     2.
 PrtBox:  NBox=     1 Levels=  1 BoxLen=    8.00 SMaxX=        2.28
          Shift=            0.000000            0.000000            0.000000
 Box      1 Number                   0 centers from      1 to      2:
 After GenITR:
 ITRead=  0  0
 MicOpt= -1 -1
 ITRead=  0  0
 MicOpt= -1 -1
 NAtoms=      2 NQM=        2 NQMF=       0 NMMI=      0 NMMIF=      0
                NMic=       0 NMicF=      0.
                    Isotopes and Nuclear Properties:
 (Nuclear quadrupole moments (NQMom) in fm**2, nuclear magnetic moments (NMagM)
  in nuclear magnetons)

  Atom         1           2
 IAtWgt=          16          16
 AtmWgt=  15.9949146  15.9949146
 NucSpn=           0           0
 AtZEff=  -0.0000000  -0.0000000
 NQMom=    0.0000000   0.0000000
 NMagM=    0.0000000   0.0000000
 AtZNuc=   8.0000000   8.0000000
 No MM parameters found.
 Leave Link  101 at Sat Apr 17 20:12:16 2021, MaxMem=   104857600 cpu:               6.6 elap:               0.2
 (Enter /s/ls4/users/knvvv/bin/g16sse/l202.exe)
                          Input orientation:                          
 ---------------------------------------------------------------------
 Center     Atomic      Atomic             Coordinates (Angstroms)
 Number     Number       Type             X           Y           Z
 ---------------------------------------------------------------------
      1          8           0        0.000000    0.000000    0.000000
      2          8           0        0.000000    0.000000    1.207800
 ---------------------------------------------------------------------
 Stoichiometry    O2(3)
 Framework group  D*H[C*(O.O)]
 Deg. of freedom     1
 Full point group                 D*H     NOp   8
 Largest Abelian subgroup         D2H     NOp   8
 Largest concise Abelian subgroup C2      NOp   2
                         Standard orientation:                         
 ---------------------------------------------------------------------
 Center     Atomic      Atomic             Coordinates (Angstroms)
 Number     Number       Type             X           Y           Z
 ---------------------------------------------------------------------
      1          8           0        0.000000    0.000000    0.603900
      2          8           0        0.000000    0.000000   -0.603900
 ---------------------------------------------------------------------
 Rotational constants (GHZ):           0.0000000          43.3186804          43.3186804
 Leave Link  202 at Sat Apr 17 20:12:17 2021, MaxMem=   104857600 cpu:              12.4 elap:               0.3
 (Enter /s/ls4/users/knvvv/bin/g16sse/l301.exe)
 General basis read from cards:  (5D, 7F)
 Centers:       1      2
 S 8 1.00
     Exponent=  1.1650646908D+05 Coefficients=  4.0383857939D-05
     Exponent=  1.7504349724D+04 Coefficients=  3.1255139004D-04
     Exponent=  3.9934513230D+03 Coefficients=  1.6341473495D-03
     Exponent=  1.1330063186D+03 Coefficients=  6.8283224757D-03
     Exponent=  3.6999569594D+02 Coefficients=  2.4124410221D-02
     Exponent=  1.3362074349D+02 Coefficients=  7.2730206154D-02
     Exponent=  5.2035643649D+01 Coefficients=  1.7934429892D-01
     Exponent=  2.1461939313D+01 Coefficients=  3.3059588895D-01
 S 2 1.00
     Exponent=  8.9835051252D+01 Coefficients=  9.6468652996D-02
     Exponent=  2.6428010844D+01 Coefficients=  9.4117481120D-01
 S 1 1.00
     Exponent=  9.2822824649D+00 Coefficients=  1.0000000000D+00
 S 1 1.00
     Exponent=  4.0947728533D+00 Coefficients=  1.0000000000D+00
 S 1 1.00
     Exponent=  1.3255349078D+00 Coefficients=  1.0000000000D+00
 S 1 1.00
     Exponent=  5.1877230787D-01 Coefficients=  1.0000000000D+00
 S 1 1.00
     Exponent=  1.9772676454D-01 Coefficients=  1.0000000000D+00
 S 1 1.00
     Exponent=  6.9638535104D-02 Coefficients=  1.0000000000D+00
 P 5 1.00
     Exponent=  1.9115255810D+02 Coefficients=  2.5115697705D-03
     Exponent=  4.5233356739D+01 Coefficients=  2.0039240864D-02
     Exponent=  1.4353465922D+01 Coefficients=  9.3609064762D-02
     Exponent=  5.2422371832D+00 Coefficients=  3.0618127124D-01
     Exponent=  2.0792418599D+00 Coefficients=  6.7810501439D-01
 P 1 1.00
     Exponent=  8.4282371424D-01 Coefficients=  1.0000000000D+00
 P 1 1.00
     Exponent=  3.3617694891D-01 Coefficients=  1.0000000000D+00
 P 1 1.00
     Exponent=  1.2863997974D-01 Coefficients=  1.0000000000D+00
 P 1 1.00
     Exponent=  4.3598162776D-02 Coefficients=  1.0000000000D+00
 D 1 1.00
     Exponent=  3.7750000000D+00 Coefficients=  1.0000000000D+00
 D 1 1.00
     Exponent=  1.3000000000D+00 Coefficients=  1.0000000000D+00
 D 1 1.00
     Exponent=  4.4400000000D-01 Coefficients=  1.0000000000D+00
 D 1 1.00
     Exponent=  1.2546378695D-01 Coefficients=  1.0000000000D+00
 F 1 1.00
     Exponent=  2.6660000000D+00 Coefficients=  1.0000000000D+00
 F 1 1.00
     Exponent=  8.5900000000D-01 Coefficients=  1.0000000000D+00
 G 1 1.00
     Exponent=  1.8460000000D+00 Coefficients=  1.0000000000D+00
 ****
 Ernie: Thresh=  0.10000D-02 Tol=  0.10000D-05 Strict=F.
 There are    37 symmetry adapted cartesian basis functions of AG  symmetry.
 There are     9 symmetry adapted cartesian basis functions of B1G symmetry.
 There are    18 symmetry adapted cartesian basis functions of B2G symmetry.
 There are    18 symmetry adapted cartesian basis functions of B3G symmetry.
 There are     9 symmetry adapted cartesian basis functions of AU  symmetry.
 There are    37 symmetry adapted cartesian basis functions of B1U symmetry.
 There are    18 symmetry adapted cartesian basis functions of B2U symmetry.
 There are    18 symmetry adapted cartesian basis functions of B3U symmetry.
 There are    28 symmetry adapted basis functions of AG  symmetry.
 There are     8 symmetry adapted basis functions of B1G symmetry.
 There are    15 symmetry adapted basis functions of B2G symmetry.
 There are    15 symmetry adapted basis functions of B3G symmetry.
 There are     8 symmetry adapted basis functions of AU  symmetry.
 There are    28 symmetry adapted basis functions of B1U symmetry.
 There are    15 symmetry adapted basis functions of B2U symmetry.
 There are    15 symmetry adapted basis functions of B3U symmetry.
   132 basis functions,   204 primitive gaussians,   164 cartesian basis functions
     9 alpha electrons        7 beta electrons
       nuclear repulsion energy        28.0405211946 Hartrees.
 IExCor= 4336 DFT=T Ex+Corr=M062X ExCW=0 ScaHFX=  0.540000
 ScaDFX=  1.000000  1.000000  1.000000  1.000000 ScalE2=  1.000000  1.000000
 IRadAn=      5 IRanWt=     -1 IRanGd=            0 ICorTp=0 IEmpDi=  4
 NAtoms=    2 NActive=    2 NUniq=    1 SFac= 4.00D+00 NAtFMM=   60 NAOKFM=F Big=F
 Integral buffers will be    131072 words long.
 Raffenetti 2 integral format.
 Two-electron integral symmetry is turned on.
 Leave Link  301 at Sat Apr 17 20:12:17 2021, MaxMem=   104857600 cpu:               6.9 elap:               0.2
 (Enter /s/ls4/users/knvvv/bin/g16sse/l302.exe)
 NPDir=0 NMtPBC=     1 NCelOv=     1 NCel=       1 NClECP=     1 NCelD=      1
         NCelK=      1 NCelE2=     1 NClLst=     1 CellRange=     0.0.
 One-electron integrals computed using PRISM.
 One-electron integral symmetry used in STVInt
 PrsmSu:  requested number of processors reduced to:   4 ShMem   1 Linda.
 PrsmSu:  requested number of processors reduced to:  21 ShMem   1 Linda.
 NBasis=   132 RedAO= T EigKep=  1.26D-04  NBF=    28     8    15    15     8    28    15    15
 NBsUse=   132 1.00D-06 EigRej= -1.00D+00 NBFU=    28     8    15    15     8    28    15    15
 Precomputing XC quadrature grid using
 IXCGrd= 4 IRadAn=           5 IRanWt=          -1 IRanGd=           0 AccXCQ= 0.00D+00.
 Generated NRdTot=       0 NPtTot=           0 NUsed=           0 NTot=          32
 NSgBfM=   164   164   164   164   164 MxSgAt=     2 MxSgA2=     2.
 Leave Link  302 at Sat Apr 17 20:12:23 2021, MaxMem=   104857600 cpu:             311.9 elap:               6.7
 (Enter /s/ls4/users/knvvv/bin/g16sse/l303.exe)
 DipDrv:  MaxL=1.
 Leave Link  303 at Sat Apr 17 20:12:24 2021, MaxMem=   104857600 cpu:              28.5 elap:               0.6
 (Enter /s/ls4/users/knvvv/bin/g16sse/l401.exe)
 SCF N**3 symmetry information disabled.
 ExpMin= 4.36D-02 ExpMax= 1.17D+05 ExpMxC= 1.13D+03 IAcc=3 IRadAn=         5 AccDes= 0.00D+00
 Harris functional with IExCor= 1009 and IRadAn=       5 diagonalized for initial guess.
 HarFok:  IExCor= 1009 AccDes= 0.00D+00 IRadAn=         5 IDoV= 1 UseB2=F ITyADJ=14
 ICtDFT=  3500011 ScaDFX=  1.000000  1.000000  1.000000  1.000000
 FoFCou: FMM=F IPFlag=           0 FMFlag=      100000 FMFlg1=           0
         NFxFlg=           0 DoJE=T BraDBF=F KetDBF=T FulRan=T
         wScrn=  0.000000 ICntrl=       500 IOpCl=  0 I1Cent=   200000004 NGrid=           0
         NMat0=    1 NMatS0=      1 NMatT0=    0 NMatD0=    1 NMtDS0=    0 NMtDT0=    0
 Petite list used in FoFCou.
 CoulSu:  requested number of processors reduced to:  21 ShMem   1 Linda.
 CoulSu:  requested number of processors reduced to:  21 ShMem   1 Linda.
 CoulSu:  requested number of processors reduced to:  21 ShMem   1 Linda.
 CoulSu:  requested number of processors reduced to:  21 ShMem   1 Linda.
 Harris En= -150.204246813390    
 JPrj=0 DoOrth=F DoCkMO=F.
 Initial guess orbital symmetries:
 Alpha Orbitals:
       Occupied  (SGG) (SGU) (SGG) (SGU) (SGG) (PIU) (PIU) (PIG)
                 (PIG)
       Virtual   (SGU) (SGG) (PIU) (PIU) (SGG) (PIG) (PIG) (SGU)
                 (SGU) (DLTG) (DLTG) (SGG) (PIU) (PIU) (PIG) (PIG)
                 (PIU) (PIU) (DLTU) (DLTU) (SGU) (SGU) (SGG) (PIG)
                 (PIG) (SGG) (DLTG) (DLTG) (PIU) (PIU) (SGU) (SGG)
                 (DLTU) (DLTU) (PIU) (PIU) (PIG) (PIG) (SGU) (PIG)
                 (PIG) (SGG) (SGU) (DLTG) (DLTG) (PHIU) (PHIU)
                 (SGG) (PIU) (PIU) (PHIG) (PHIG) (SGG) (SGU) (DLTG)
                 (DLTG) (DLTU) (DLTU) (DLTU) (DLTU) (PIG) (PIG)
                 (PIU) (PIU) (SGU) (SGU) (PIG) (PIG) (PIU) (PIU)
                 (SGG) (SGG) (PIG) (PIG) (SGU) (DLTG) (DLTG) (PHIU)
                 (PHIU) (PIU) (PIU) (?A) (?A) (SGG) (?B) (?B) (PHIG)
                 (PHIG) (DLTU) (DLTU) (SGU) (PIG) (PIG) (PHIU)
                 (PHIU) (DLTG) (DLTG) (PHIG) (PHIG) (DLTU) (DLTU)
                 (SGG) (SGU) (PIG) (PIG) (PIU) (PIU) (DLTG) (DLTG)
                 (PIU) (PIU) (DLTU) (DLTU) (SGG) (SGU) (PIG) (PIG)
                 (SGG) (SGU) (SGG) (SGU) (SGG) (SGU)
 Beta  Orbitals:
       Occupied  (SGG) (SGU) (SGG) (SGU) (SGG) (PIU) (PIU)
       Virtual   (PIG) (PIG) (SGU) (SGG) (PIU) (PIU) (SGG) (PIG)
                 (PIG) (SGU) (SGU) (DLTG) (DLTG) (SGG) (PIU) (PIU)
                 (PIG) (PIG) (PIU) (PIU) (DLTU) (DLTU) (SGU) (SGU)
                 (SGG) (PIG) (PIG) (SGG) (DLTG) (DLTG) (PIU) (PIU)
                 (SGU) (SGG) (DLTU) (DLTU) (PIU) (PIU) (PIG) (PIG)
                 (SGU) (PIG) (PIG) (SGG) (SGU) (DLTG) (DLTG) (PHIU)
                 (PHIU) (SGG) (PIU) (PIU) (PHIG) (PHIG) (SGG) (SGU)
                 (DLTG) (DLTG) (DLTU) (DLTU) (DLTU) (DLTU) (PIG)
                 (PIG) (PIU) (PIU) (SGU) (SGU) (PIG) (PIG) (PIU)
                 (PIU) (SGG) (SGG) (PIG) (PIG) (SGU) (DLTG) (DLTG)
                 (PHIU) (PHIU) (PIU) (PIU) (?A) (?A) (SGG) (?B)
                 (?B) (PHIG) (PHIG) (DLTU) (DLTU) (SGU) (PIG) (PIG)
                 (PHIU) (PHIU) (DLTG) (DLTG) (PHIG) (PHIG) (DLTU)
                 (DLTU) (SGG) (SGU) (PIG) (PIG) (PIU) (PIU) (DLTG)
                 (DLTG) (PIU) (PIU) (DLTU) (DLTU) (SGG) (SGU) (PIG)
                 (PIG) (SGG) (SGU) (SGG) (SGU) (SGG) (SGU)
 The electronic state of the initial guess is 3-SGG.
 Initial guess <Sx>= 0.0000 <Sy>= 0.0000 <Sz>= 1.0000 <S**2>= 2.0000 S= 1.0000
 Leave Link  401 at Sat Apr 17 20:12:28 2021, MaxMem=   104857600 cpu:             153.8 elap:               3.4
 (Enter /s/ls4/users/knvvv/bin/g16sse/l502.exe)
 Keep R1 and R2 ints in memory in symmetry-blocked form, NReq=92823473.
 FoFCou: FMM=F IPFlag=           0 FMFlag=           0 FMFlg1=           0
         NFxFlg=           0 DoJE=F BraDBF=F KetDBF=F FulRan=T
         wScrn=  0.000000 ICntrl=       600 IOpCl=  0 I1Cent=           0 NGrid=           0
         NMat0=    1 NMatS0=   8778 NMatT0=    0 NMatD0=    1 NMtDS0=    0 NMtDT0=    0
 Petite list used in FoFCou.
 CoulSu:  requested number of processors reduced to:  14 ShMem   1 Linda.
 UHF open shell SCF:
 Using DIIS extrapolation, IDIIS=  1040.
 NGot=   104857600 LenX=    94934904 LenY=    94907567
 Requested convergence on RMS density matrix=1.00D-08 within 128 cycles.
 Requested convergence on MAX density matrix=1.00D-06.
 Requested convergence on             energy=1.00D-06.
 No special actions if energy rises.

 Cycle   1  Pass 1  IDiag  1:
 E= -150.318420565665    
 DIIS: error= 5.38D-02 at cycle   1 NSaved=   1.
 NSaved= 1 IEnMin= 1 EnMin= -150.318420565665     IErMin= 1 ErrMin= 5.38D-02
 ErrMax= 5.38D-02  0.00D+00 EMaxC= 1.00D-01 BMatC= 3.32D-01 BMatP= 3.32D-01
 IDIUse=3 WtCom= 4.62D-01 WtEn= 5.38D-01
 Coeff-Com:  0.100D+01
 Coeff-En:   0.100D+01
 Coeff:      0.100D+01
 Gap=     0.451 Goal=   None    Shift=    0.000
 Gap=     0.486 Goal=   None    Shift=    0.000
 GapD=    0.451 DampG=2.000 DampE=0.500 DampFc=1.0000 IDamp=-1.
 RMSDP=8.22D-04 MaxDP=1.94D-02              OVMax= 4.00D-02

 Cycle   2  Pass 1  IDiag  1:
 E= -150.335546027113     Delta-E=       -0.017125461448 Rises=F Damp=F
 DIIS: error= 6.78D-03 at cycle   2 NSaved=   2.
 NSaved= 2 IEnMin= 2 EnMin= -150.335546027113     IErMin= 2 ErrMin= 6.78D-03
 ErrMax= 6.78D-03  0.00D+00 EMaxC= 1.00D-01 BMatC= 8.94D-03 BMatP= 3.32D-01
 IDIUse=3 WtCom= 9.32D-01 WtEn= 6.78D-02
 Coeff-Com:  0.657D-01 0.934D+00
 Coeff-En:   0.000D+00 0.100D+01
 Coeff:      0.613D-01 0.939D+00
 Gap=     0.432 Goal=   None    Shift=    0.000
 Gap=     0.476 Goal=   None    Shift=    0.000
 RMSDP=2.50D-04 MaxDP=1.27D-02 DE=-1.71D-02 OVMax= 1.42D-02

 Cycle   3  Pass 1  IDiag  1:
 E= -150.336913980380     Delta-E=       -0.001367953267 Rises=F Damp=F
 DIIS: error= 2.47D-03 at cycle   3 NSaved=   3.
 NSaved= 3 IEnMin= 3 EnMin= -150.336913980380     IErMin= 3 ErrMin= 2.47D-03
 ErrMax= 2.47D-03  0.00D+00 EMaxC= 1.00D-01 BMatC= 1.08D-03 BMatP= 8.94D-03
 IDIUse=3 WtCom= 9.75D-01 WtEn= 2.47D-02
 Coeff-Com: -0.603D-02 0.203D+00 0.803D+00
 Coeff-En:   0.000D+00 0.000D+00 0.100D+01
 Coeff:     -0.588D-02 0.198D+00 0.808D+00
 Gap=     0.441 Goal=   None    Shift=    0.000
 Gap=     0.478 Goal=   None    Shift=    0.000
 RMSDP=7.11D-05 MaxDP=2.27D-03 DE=-1.37D-03 OVMax= 4.68D-03

 Cycle   4  Pass 1  IDiag  1:
 E= -150.337096812313     Delta-E=       -0.000182831933 Rises=F Damp=F
 DIIS: error= 7.33D-04 at cycle   4 NSaved=   4.
 NSaved= 4 IEnMin= 4 EnMin= -150.337096812313     IErMin= 4 ErrMin= 7.33D-04
 ErrMax= 7.33D-04  0.00D+00 EMaxC= 1.00D-01 BMatC= 8.36D-05 BMatP= 1.08D-03
 IDIUse=3 WtCom= 9.93D-01 WtEn= 7.33D-03
 Coeff-Com: -0.340D-02-0.353D-01 0.783D-01 0.960D+00
 Coeff-En:   0.000D+00 0.000D+00 0.000D+00 0.100D+01
 Coeff:     -0.337D-02-0.350D-01 0.777D-01 0.961D+00
 Gap=     0.440 Goal=   None    Shift=    0.000
 Gap=     0.478 Goal=   None    Shift=    0.000
 RMSDP=3.41D-05 MaxDP=1.33D-03 DE=-1.83D-04 OVMax= 2.08D-03

 Cycle   5  Pass 1  IDiag  1:
 E= -150.337115858757     Delta-E=       -0.000019046443 Rises=F Damp=F
 DIIS: error= 2.44D-04 at cycle   5 NSaved=   5.
 NSaved= 5 IEnMin= 5 EnMin= -150.337115858757     IErMin= 5 ErrMin= 2.44D-04
 ErrMax= 2.44D-04  0.00D+00 EMaxC= 1.00D-01 BMatC= 8.91D-06 BMatP= 8.36D-05
 IDIUse=3 WtCom= 9.98D-01 WtEn= 2.44D-03
 Coeff-Com:  0.682D-04-0.335D-01-0.836D-01 0.206D+00 0.912D+00
 Coeff-En:   0.000D+00 0.000D+00 0.000D+00 0.000D+00 0.100D+01
 Coeff:      0.680D-04-0.334D-01-0.834D-01 0.205D+00 0.912D+00
 Gap=     0.441 Goal=   None    Shift=    0.000
 Gap=     0.478 Goal=   None    Shift=    0.000
 RMSDP=1.17D-05 MaxDP=4.25D-04 DE=-1.90D-05 OVMax= 5.65D-04

 Cycle   6  Pass 1  IDiag  1:
 E= -150.337117794062     Delta-E=       -0.000001935305 Rises=F Damp=F
 DIIS: error= 1.59D-05 at cycle   6 NSaved=   6.
 NSaved= 6 IEnMin= 6 EnMin= -150.337117794062     IErMin= 6 ErrMin= 1.59D-05
 ErrMax= 1.59D-05  0.00D+00 EMaxC= 1.00D-01 BMatC= 2.01D-08 BMatP= 8.91D-06
 IDIUse=1 WtCom= 1.00D+00 WtEn= 0.00D+00
 Coeff-Com:  0.477D-04 0.334D-02 0.778D-02-0.295D-01-0.900D-01 0.111D+01
 Coeff:      0.477D-04 0.334D-02 0.778D-02-0.295D-01-0.900D-01 0.111D+01
 Gap=     0.441 Goal=   None    Shift=    0.000
 Gap=     0.478 Goal=   None    Shift=    0.000
 RMSDP=1.10D-06 MaxDP=4.27D-05 DE=-1.94D-06 OVMax= 3.80D-05

 Cycle   7  Pass 1  IDiag  1:
 E= -150.337117800309     Delta-E=       -0.000000006247 Rises=F Damp=F
 DIIS: error= 2.09D-06 at cycle   7 NSaved=   7.
 NSaved= 7 IEnMin= 7 EnMin= -150.337117800309     IErMin= 7 ErrMin= 2.09D-06
 ErrMax= 2.09D-06  0.00D+00 EMaxC= 1.00D-01 BMatC= 2.94D-10 BMatP= 2.01D-08
 IDIUse=1 WtCom= 1.00D+00 WtEn= 0.00D+00
 Coeff-Com: -0.933D-05-0.167D-03-0.205D-03 0.198D-02 0.394D-02-0.161D+00
 Coeff-Com:  0.116D+01
 Coeff:     -0.933D-05-0.167D-03-0.205D-03 0.198D-02 0.394D-02-0.161D+00
 Coeff:      0.116D+01
 Gap=     0.441 Goal=   None    Shift=    0.000
 Gap=     0.478 Goal=   None    Shift=    0.000
 RMSDP=9.95D-08 MaxDP=3.03D-06 DE=-6.25D-09 OVMax= 6.39D-06

 Cycle   8  Pass 1  IDiag  1:
 E= -150.337117800416     Delta-E=       -0.000000000107 Rises=F Damp=F
 DIIS: error= 2.47D-07 at cycle   8 NSaved=   8.
 NSaved= 8 IEnMin= 8 EnMin= -150.337117800416     IErMin= 8 ErrMin= 2.47D-07
 ErrMax= 2.47D-07  0.00D+00 EMaxC= 1.00D-01 BMatC= 5.95D-12 BMatP= 2.94D-10
 IDIUse=1 WtCom= 1.00D+00 WtEn= 0.00D+00
 Coeff-Com:  0.191D-05-0.424D-05-0.458D-04-0.126D-03 0.188D-03 0.257D-01
 Coeff-Com: -0.284D+00 0.126D+01
 Coeff:      0.191D-05-0.424D-05-0.458D-04-0.126D-03 0.188D-03 0.257D-01
 Coeff:     -0.284D+00 0.126D+01
 Gap=     0.441 Goal=   None    Shift=    0.000
 Gap=     0.478 Goal=   None    Shift=    0.000
 RMSDP=1.39D-08 MaxDP=3.99D-07 DE=-1.07D-10 OVMax= 9.81D-07

 Cycle   9  Pass 1  IDiag  1:
 E= -150.337117800419     Delta-E=       -0.000000000003 Rises=F Damp=F
 DIIS: error= 2.22D-08 at cycle   9 NSaved=   9.
 NSaved= 9 IEnMin= 9 EnMin= -150.337117800419     IErMin= 9 ErrMin= 2.22D-08
 ErrMax= 2.22D-08  0.00D+00 EMaxC= 1.00D-01 BMatC= 6.96D-14 BMatP= 5.95D-12
 IDIUse=1 WtCom= 1.00D+00 WtEn= 0.00D+00
 Coeff-Com: -0.144D-06 0.202D-05 0.627D-05 0.315D-05-0.648D-04-0.128D-02
 Coeff-Com:  0.217D-01-0.185D+00 0.116D+01
 Coeff:     -0.144D-06 0.202D-05 0.627D-05 0.315D-05-0.648D-04-0.128D-02
 Coeff:      0.217D-01-0.185D+00 0.116D+01
 Gap=     0.441 Goal=   None    Shift=    0.000
 Gap=     0.478 Goal=   None    Shift=    0.000
 RMSDP=1.55D-09 MaxDP=4.14D-08 DE=-2.79D-12 OVMax= 8.54D-08

 SCF Done:  E(UM062X) =  -150.337117800     A.U. after    9 cycles
            NFock=  9  Conv=0.15D-08     -V/T= 2.0033
 <Sx>= 0.0000 <Sy>= 0.0000 <Sz>= 1.0000 <S**2>= 2.0135 S= 1.0045
 <L.S>= 0.000000000000E+00
 KE= 1.498468387139D+02 PE=-4.115939020602D+02 EE= 8.336942435121D+01
 Annihilation of the first spin contaminant:
 S**2 before annihilation     2.0135,   after     2.0001
 Leave Link  502 at Sat Apr 17 20:14:44 2021, MaxMem=   104857600 cpu:            6375.9 elap:             136.0
 (Enter /s/ls4/users/knvvv/bin/g16sse/l601.exe)
 Copying SCF densities to generalized density rwf, IOpCl= 1 IROHF=0.

 **********************************************************************

            Population analysis using the SCF density.

 **********************************************************************

 Orbital symmetries:
 Alpha Orbitals:
       Occupied  (SGG) (SGU) (SGG) (SGU) (PIU) (PIU) (SGG) (PIG)
                 (PIG)
       Virtual   (SGU) (PIU) (PIU) (SGG) (PIG) (PIG) (SGG) (SGU)
                 (DLTG) (DLTG) (SGU) (SGG) (PIU) (PIU) (PIG) (PIG)
                 (PIU) (PIU) (DLTU) (DLTU) (SGU) (SGU) (PIG) (PIG)
                 (SGG) (SGG) (DLTG) (DLTG) (SGU) (PIU) (PIU) (SGG)
                 (DLTU) (DLTU) (PIU) (PIU) (PIG) (PIG) (SGU) (PIG)
                 (PIG) (SGG) (SGU) (DLTG) (DLTG) (PHIU) (PHIU)
                 (SGG) (PIU) (PIU) (PHIG) (PHIG) (SGG) (SGU) (DLTG)
                 (DLTG) (DLTU) (DLTU) (DLTU) (DLTU) (PIG) (PIG)
                 (PIU) (PIU) (SGU) (SGU) (PIG) (PIG) (SGG) (PIU)
                 (PIU) (SGG) (PIG) (PIG) (SGU) (DLTG) (DLTG) (PHIU)
                 (PHIU) (PIU) (PIU) (?A) (?A) (SGG) (?B) (?B) (PHIG)
                 (PHIG) (DLTU) (DLTU) (SGU) (PIG) (PIG) (PHIU)
                 (PHIU) (DLTG) (DLTG) (PHIG) (PHIG) (DLTU) (DLTU)
                 (PIG) (PIG) (SGU) (SGG) (PIU) (PIU) (DLTG) (DLTG)
                 (PIU) (PIU) (DLTU) (DLTU) (SGG) (SGU) (PIG) (PIG)
                 (SGG) (SGU) (SGG) (SGU) (SGG) (SGU)
 Beta  Orbitals:
       Occupied  (SGG) (SGU) (SGG) (SGU) (SGG) (PIU) (PIU)
       Virtual   (PIG) (PIG) (SGU) (PIU) (PIU) (SGG) (PIG) (PIG)
                 (SGG) (SGU) (DLTG) (DLTG) (SGU) (SGG) (PIU) (PIU)
                 (DLTU) (DLTU) (PIG) (PIG) (PIU) (PIU) (SGU) (SGU)
                 (PIG) (PIG) (SGG) (SGG) (DLTG) (DLTG) (SGU) (PIU)
                 (PIU) (SGG) (DLTU) (DLTU) (PIU) (PIU) (PIG) (PIG)
                 (SGU) (PIG) (PIG) (SGG) (SGU) (DLTG) (DLTG) (PHIU)
                 (PHIU) (SGG) (PIU) (PIU) (PHIG) (PHIG) (SGG) (SGU)
                 (DLTG) (DLTG) (DLTU) (DLTU) (DLTU) (DLTU) (PIG)
                 (PIG) (PIU) (PIU) (SGU) (SGU) (PIG) (PIG) (SGG)
                 (PIU) (PIU) (SGG) (PIG) (PIG) (SGU) (DLTG) (DLTG)
                 (PHIU) (PHIU) (PIU) (PIU) (SGG) (?A) (?A) (?B)
                 (?B) (PHIG) (PHIG) (DLTU) (DLTU) (SGU) (PIG) (PIG)
                 (PHIU) (PHIU) (DLTG) (DLTG) (PHIG) (PHIG) (DLTU)
                 (DLTU) (PIG) (PIG) (SGU) (SGG) (PIU) (PIU) (DLTG)
                 (DLTG) (PIU) (PIU) (DLTU) (DLTU) (SGG) (SGU) (PIG)
                 (PIG) (SGG) (SGU) (SGG) (SGU) (SGG) (SGU)
 The electronic state is 3-SGG.
 Alpha  occ. eigenvalues --  -19.79413 -19.79374  -1.44903  -0.96931  -0.67354
 Alpha  occ. eigenvalues --   -0.67354  -0.64639  -0.40499  -0.40499
 Alpha virt. eigenvalues --    0.03591   0.05406   0.05406   0.06194   0.09686
 Alpha virt. eigenvalues --    0.09686   0.10307   0.19109   0.28892   0.28892
 Alpha virt. eigenvalues --    0.30166   0.36751   0.38380   0.38380   0.42741
 Alpha virt. eigenvalues --    0.42741   0.43630   0.43630   0.44152   0.44152
 Alpha virt. eigenvalues --    0.44449   0.60040   0.63642   0.63642   0.65436
 Alpha virt. eigenvalues --    0.70633   1.10902   1.10902   1.19744   1.21939
 Alpha virt. eigenvalues --    1.21939   1.36611   1.41593   1.41594   1.42377
 Alpha virt. eigenvalues --    1.42377   1.48153   1.48153   1.57389   1.90635
 Alpha virt. eigenvalues --    1.90635   2.00945   2.14394   2.86574   2.86574
 Alpha virt. eigenvalues --    2.87876   2.87876   2.92840   3.14419   3.14419
 Alpha virt. eigenvalues --    3.27404   3.27404   3.51216   3.78591   3.82203
 Alpha virt. eigenvalues --    3.82203   3.89403   3.89404   3.99520   3.99523
 Alpha virt. eigenvalues --    4.00809   4.00809   4.14839   4.14839   4.36552
 Alpha virt. eigenvalues --    4.51590   4.67915   4.67915   4.92712   4.96672
 Alpha virt. eigenvalues --    4.96672   5.07203   5.52767   5.52767   7.85353
 Alpha virt. eigenvalues --    8.06030   8.06031   8.27201   8.27201   8.50790
 Alpha virt. eigenvalues --    8.50790   8.61866   8.61875   8.64147   8.75454
 Alpha virt. eigenvalues --    8.75463   9.18330   9.18330  10.23956  10.23956
 Alpha virt. eigenvalues --   10.46863  10.52434  10.52434  10.61130  10.61130
 Alpha virt. eigenvalues --   10.75727  10.75727  10.76303  10.76303  11.13383
 Alpha virt. eigenvalues --   11.13386  11.33914  11.33914  11.35673  11.36429
 Alpha virt. eigenvalues --   11.54876  11.54876  11.74468  11.74471  11.80407
 Alpha virt. eigenvalues --   11.80407  11.92990  11.92993  12.03882  13.45210
 Alpha virt. eigenvalues --   13.71284  13.71284  13.82539  15.62123  47.22270
 Alpha virt. eigenvalues --   47.96396 250.19562 251.00952
  Beta  occ. eigenvalues --  -19.76888 -19.76816  -1.37677  -0.86149  -0.59435
  Beta  occ. eigenvalues --   -0.53805  -0.53805
  Beta virt. eigenvalues --   -0.05995  -0.05995   0.04342   0.05988   0.05988
  Beta virt. eigenvalues --    0.06701   0.11098   0.11098   0.11231   0.19827
  Beta virt. eigenvalues --    0.29453   0.29453   0.32715   0.36607   0.38106
  Beta virt. eigenvalues --    0.38106   0.42776   0.42776   0.42779   0.42779
  Beta virt. eigenvalues --    0.44845   0.44845   0.45476   0.60874   0.63837
  Beta virt. eigenvalues --    0.63837   0.65334   0.70243   1.12755   1.12755
  Beta virt. eigenvalues --    1.20259   1.23845   1.23845   1.37220   1.44274
  Beta virt. eigenvalues --    1.44274   1.47611   1.47611   1.51156   1.51156
  Beta virt. eigenvalues --    1.57675   1.91888   1.91888   2.00928   2.14647
  Beta virt. eigenvalues --    2.86665   2.86665   2.88289   2.88289   2.93462
  Beta virt. eigenvalues --    3.16845   3.16845   3.28582   3.28582   3.54085
  Beta virt. eigenvalues --    3.78901   3.86708   3.86708   3.91822   3.91822
  Beta virt. eigenvalues --    4.01713   4.01714   4.02863   4.02863   4.15089
  Beta virt. eigenvalues --    4.15089   4.35522   4.53818   4.68833   4.68833
  Beta virt. eigenvalues --    4.90958   5.01823   5.01823   5.09082   5.56444
  Beta virt. eigenvalues --    5.56444   7.86719   8.05922   8.05922   8.28766
  Beta virt. eigenvalues --    8.28766   8.47613   8.47613   8.64971   8.66101
  Beta virt. eigenvalues --    8.66103   8.79839   8.79841   9.19436   9.19436
  Beta virt. eigenvalues --   10.22674  10.22675  10.46847  10.52604  10.52604
  Beta virt. eigenvalues --   10.73309  10.73309  10.80491  10.80491  10.89070
  Beta virt. eigenvalues --   10.89070  11.18706  11.18707  11.36833  11.36833
  Beta virt. eigenvalues --   11.37574  11.39491  11.58525  11.58525  11.86404
  Beta virt. eigenvalues --   11.86405  11.86752  11.86752  12.04518  12.04519
  Beta virt. eigenvalues --   12.06868  13.62448  13.74092  13.74092  13.95921
  Beta virt. eigenvalues --   15.59548  47.26108  48.00674 250.14727 250.96101
          Condensed to atoms (all electrons):
               1          2
     1  O    8.014291  -0.014291
     2  O   -0.014291   8.014291
          Atomic-Atomic Spin Densities.
               1          2
     1  O    1.360274  -0.360274
     2  O   -0.360274   1.360274
 Mulliken charges and spin densities:
               1          2
     1  O   -0.000000   1.000000
     2  O   -0.000000   1.000000
 Sum of Mulliken charges =  -0.00000   2.00000
 Mulliken charges and spin densities with hydrogens summed into heavy atoms:
               1          2
     1  O   -0.000000   1.000000
     2  O   -0.000000   1.000000
 Electronic spatial extent (au):  <R**2>=             43.6016
 Charge=             -0.0000 electrons
 Dipole moment (field-independent basis, Debye):
    X=             -0.0000    Y=              0.0000    Z=             -0.0000  Tot=              0.0000
 Quadrupole moment (field-independent basis, Debye-Ang):
   XX=            -10.0786   YY=            -10.0786   ZZ=            -10.4611
   XY=             -0.0000   XZ=              0.0000   YZ=              0.0000
 Traceless Quadrupole moment (field-independent basis, Debye-Ang):
   XX=              0.1275   YY=              0.1275   ZZ=             -0.2550
   XY=             -0.0000   XZ=              0.0000   YZ=              0.0000
 Octapole moment (field-independent basis, Debye-Ang**2):
  XXX=             -0.0000  YYY=              0.0000  ZZZ=              0.0000  XYY=             -0.0000
  XXY=              0.0000  XXZ=              0.0000  XZZ=             -0.0000  YZZ=              0.0000
  YYZ=              0.0000  XYZ=             -0.0000
 Hexadecapole moment (field-independent basis, Debye-Ang**3):
 XXXX=             -7.4785 YYYY=             -7.4785 ZZZZ=            -28.9206 XXXY=             -0.0000
 XXXZ=              0.0000 YYYX=             -0.0000 YYYZ=              0.0000 ZZZX=              0.0000
 ZZZY=              0.0000 XXYY=             -2.4928 XXZZ=             -6.3267 YYZZ=             -6.3267
 XXYZ=              0.0000 YYXZ=              0.0000 ZZXY=             -0.0000
 N-N= 2.804052119463D+01 E-N=-4.115939022815D+02  KE= 1.498468387139D+02
                          Isotropic Fermi Contact Couplings
        Atom                 a.u.       MegaHertz       Gauss      10(-4) cm-1
     1  O(17)              0.16493     -49.98900     -17.83732     -16.67453
     2  O(17)              0.16493     -49.98900     -17.83732     -16.67453
 PrsmSu:  requested number of processors reduced to:  21 ShMem   1 Linda.
 --------------------------------------------------------
       Center         ----  Spin Dipole Couplings  ----
                      3XX-RR        3YY-RR        3ZZ-RR
 --------------------------------------------------------
     1   Atom        1.316643      1.316643     -2.633286
     2   Atom        1.316643      1.316643     -2.633286
 --------------------------------------------------------
                        XY            XZ            YZ
 --------------------------------------------------------
     1   Atom        0.000000     -0.000000      0.000000
     2   Atom        0.000000     -0.000000      0.000000
 --------------------------------------------------------


 ---------------------------------------------------------------------------------
              Anisotropic Spin Dipole Couplings in Principal Axis System
 ---------------------------------------------------------------------------------

       Atom             a.u.   MegaHertz   Gauss  10(-4) cm-1        Axes

              Baa    -2.6333   190.543    67.990    63.558  0.0000  0.0000  1.0000
     1 O(17)  Bbb     1.3166   -95.271   -33.995   -31.779  0.0060  1.0000  0.0000
              Bcc     1.3166   -95.271   -33.995   -31.779  1.0000 -0.0060  0.0000
 
              Baa    -2.6333   190.543    67.990    63.558  0.0000  0.0000  1.0000
     2 O(17)  Bbb     1.3166   -95.271   -33.995   -31.779 -0.0061  1.0000 -0.0000
              Bcc     1.3166   -95.271   -33.995   -31.779  1.0000  0.0061  0.0000
 

 ---------------------------------------------------------------------------------

 PrsmSu:  requested number of processors reduced to:  21 ShMem   1 Linda.
 No NMR shielding tensors so no spin-rotation constants.
 Leave Link  601 at Sat Apr 17 20:14:49 2021, MaxMem=   104857600 cpu:             237.8 elap:               5.3
 (Enter /s/ls4/users/knvvv/bin/g16sse/l801.exe)
 DoSCS=F DFT=T ScalE2(SS,OS)=  1.000000  1.000000
 Range of M.O.s used for correlation:     1   132
 NBasis=   132 NAE=     9 NBE=     7 NFC=     0 NFV=     0
 NROrb=    132 NOA=     9 NOB=     7 NVA=   123 NVB=   125

 **** Warning!!: The largest alpha MO coefficient is  0.30173194D+02


 **** Warning!!: The largest beta MO coefficient is  0.30115435D+02

 Leave Link  801 at Sat Apr 17 20:14:49 2021, MaxMem=   104857600 cpu:               3.8 elap:               0.1
 (Enter /s/ls4/users/knvvv/bin/g16sse/l914.exe)
 UHF ground state
 Doing stability rather than CIS.
 Two-electron integrals replicated using symmetry.
 MDV=   104857600 DFT=T DoStab=T Mixed=T DoRPA=F DoScal=F NonHer=F
 Making orbital integer symmetry assigments:
 Orbital symmetries:
 Alpha Orbitals:
       Occupied  (SGG) (SGU) (SGG) (SGU) (PIU) (PIU) (SGG) (PIG)
                 (PIG)
       Virtual   (SGU) (PIU) (PIU) (SGG) (PIG) (PIG) (SGG) (SGU)
                 (DLTG) (DLTG) (SGU) (SGG) (PIU) (PIU) (PIG) (PIG)
                 (PIU) (PIU) (DLTU) (DLTU) (SGU) (SGU) (PIG) (PIG)
                 (SGG) (SGG) (DLTG) (DLTG) (SGU) (PIU) (PIU) (SGG)
                 (DLTU) (DLTU) (PIU) (PIU) (PIG) (PIG) (SGU) (PIG)
                 (PIG) (SGG) (SGU) (DLTG) (DLTG) (PHIU) (PHIU)
                 (SGG) (PIU) (PIU) (PHIG) (PHIG) (SGG) (SGU) (DLTG)
                 (DLTG) (DLTU) (DLTU) (DLTU) (DLTU) (PIG) (PIG)
                 (PIU) (PIU) (SGU) (SGU) (PIG) (PIG) (SGG) (PIU)
                 (PIU) (SGG) (PIG) (PIG) (SGU) (DLTG) (DLTG) (PHIU)
                 (PHIU) (PIU) (PIU) (?A) (?A) (SGG) (?B) (?B) (PHIG)
                 (PHIG) (DLTU) (DLTU) (SGU) (PIG) (PIG) (PHIU)
                 (PHIU) (DLTG) (DLTG) (PHIG) (PHIG) (DLTU) (DLTU)
                 (PIG) (PIG) (SGU) (SGG) (PIU) (PIU) (DLTG) (DLTG)
                 (PIU) (PIU) (DLTU) (DLTU) (SGG) (SGU) (PIG) (PIG)
                 (SGG) (SGU) (SGG) (SGU) (SGG) (SGU)
 Beta  Orbitals:
       Occupied  (SGG) (SGU) (SGG) (SGU) (SGG) (PIU) (PIU)
       Virtual   (PIG) (PIG) (SGU) (PIU) (PIU) (SGG) (PIG) (PIG)
                 (SGG) (SGU) (DLTG) (DLTG) (SGU) (SGG) (PIU) (PIU)
                 (DLTU) (DLTU) (PIG) (PIG) (PIU) (PIU) (SGU) (SGU)
                 (PIG) (PIG) (SGG) (SGG) (DLTG) (DLTG) (SGU) (PIU)
                 (PIU) (SGG) (DLTU) (DLTU) (PIU) (PIU) (PIG) (PIG)
                 (SGU) (PIG) (PIG) (SGG) (SGU) (DLTG) (DLTG) (PHIU)
                 (PHIU) (SGG) (PIU) (PIU) (PHIG) (PHIG) (SGG) (SGU)
                 (DLTG) (DLTG) (DLTU) (DLTU) (DLTU) (DLTU) (PIG)
                 (PIG) (PIU) (PIU) (SGU) (SGU) (PIG) (PIG) (SGG)
                 (PIU) (PIU) (SGG) (PIG) (PIG) (SGU) (DLTG) (DLTG)
                 (PHIU) (PHIU) (PIU) (PIU) (SGG) (?A) (?A) (?B)
                 (?B) (PHIG) (PHIG) (DLTU) (DLTU) (SGU) (PIG) (PIG)
                 (PHIU) (PHIU) (DLTG) (DLTG) (PHIG) (PHIG) (DLTU)
                 (DLTU) (PIG) (PIG) (SGU) (SGG) (PIU) (PIU) (DLTG)
                 (DLTG) (PIU) (PIU) (DLTU) (DLTU) (SGG) (SGU) (PIG)
                 (PIG) (SGG) (SGU) (SGG) (SGU) (SGG) (SGU)
    24 initial guesses have been made.
 Convergence on wavefunction:    0.001000000000000
 Davidson Disk Diagonalization:  ConvIn= 1.00D-03 SkipCon=T Conv= 1.00D-03.
 Max sub-space:  2000 roots to seek:    24 dimension of matrix:         1982
 Iteration     1 Dimension    24 NMult     0 NNew     24
 Estimated number of processors is:   20
 CISAX will form     1 AO SS matrices at one time.
 NMat=     1 NSing=     1 JSym2X= 2.
 FoFJK:  IHMeth= 1 ICntrl=       0 DoSepK=F KAlg= 0 I1Cent=           0 FoldK=F
 IRaf= 990000000 NMat=       1 IRICut=       1 DoRegI=T DoRafI=F ISym2E= 2 IDoP0=0 IntGTp=1.
 FoFCou: FMM=F IPFlag=           0 FMFlag=      100000 FMFlg1=           0
         NFxFlg=           0 DoJE=F BraDBF=F KetDBF=F FulRan=T
         wScrn=  0.000000 ICntrl=         0 IOpCl=  1 I1Cent=           0 NGrid=           0
         NMat0=    1 NMatS0=      1 NMatT0=    0 NMatD0=    1 NMtDS0=    0 NMtDT0=    0
 Integrals replicated using symmetry in FoFCou.
 CoulSu:  requested number of processors reduced to:  18 ShMem   1 Linda.
 NMat=     1 NSing=     1 JSym2X= 2.
 CoulSu:  requested number of processors reduced to:  18 ShMem   1 Linda.
 NMat=     1 NSing=     1 JSym2X= 2.
 CoulSu:  requested number of processors reduced to:  18 ShMem   1 Linda.
 NMat=     1 NSing=     1 JSym2X= 2.
 CoulSu:  requested number of processors reduced to:  18 ShMem   1 Linda.
 NMat=     1 NSing=     1 JSym2X= 2.
 CoulSu:  requested number of processors reduced to:  18 ShMem   1 Linda.
 NMat=     1 NSing=     1 JSym2X= 2.
 CoulSu:  requested number of processors reduced to:  18 ShMem   1 Linda.
 NMat=     1 NSing=     1 JSym2X= 2.
 CoulSu:  requested number of processors reduced to:  18 ShMem   1 Linda.
 NMat=     1 NSing=     1 JSym2X= 2.
 CoulSu:  requested number of processors reduced to:  18 ShMem   1 Linda.
 NMat=     1 NSing=     1 JSym2X= 2.
 CoulSu:  requested number of processors reduced to:  18 ShMem   1 Linda.
 NMat=     1 NSing=     1 JSym2X= 2.
 CoulSu:  requested number of processors reduced to:  18 ShMem   1 Linda.
 NMat=     1 NSing=     1 JSym2X= 2.
 CoulSu:  requested number of processors reduced to:  18 ShMem   1 Linda.
 NMat=     1 NSing=     1 JSym2X= 2.
 CoulSu:  requested number of processors reduced to:  18 ShMem   1 Linda.
 NMat=     1 NSing=     1 JSym2X= 2.
 CoulSu:  requested number of processors reduced to:  18 ShMem   1 Linda.
 NMat=     1 NSing=     1 JSym2X= 2.
 CoulSu:  requested number of processors reduced to:  18 ShMem   1 Linda.
 NMat=     1 NSing=     1 JSym2X= 2.
 CoulSu:  requested number of processors reduced to:  18 ShMem   1 Linda.
 NMat=     1 NSing=     1 JSym2X= 2.
 CoulSu:  requested number of processors reduced to:  18 ShMem   1 Linda.
 NMat=     1 NSing=     1 JSym2X= 2.
 CoulSu:  requested number of processors reduced to:  18 ShMem   1 Linda.
 NMat=     1 NSing=     1 JSym2X= 2.
 CoulSu:  requested number of processors reduced to:  18 ShMem   1 Linda.
 NMat=     1 NSing=     1 JSym2X= 2.
 CoulSu:  requested number of processors reduced to:  18 ShMem   1 Linda.
 NMat=     1 NSing=     1 JSym2X= 2.
 CoulSu:  requested number of processors reduced to:  18 ShMem   1 Linda.
 NMat=     1 NSing=     1 JSym2X= 2.
 CoulSu:  requested number of processors reduced to:  18 ShMem   1 Linda.
 NMat=     1 NSing=     1 JSym2X= 2.
 CoulSu:  requested number of processors reduced to:  18 ShMem   1 Linda.
 NMat=     1 NSing=     1 JSym2X= 2.
 CoulSu:  requested number of processors reduced to:  18 ShMem   1 Linda.
 NMat=     1 NSing=     1 JSym2X= 2.
 CoulSu:  requested number of processors reduced to:  18 ShMem   1 Linda.
 New state      1 was old state     10
 Excitation Energies [eV] at current iteration:
 Root      1 :     5.667099472679881
 Root      2 :     5.667175505758842
 Root      3 :     7.736151839646571
 Root      4 :     8.310540942785748
 Root      5 :     8.310540942786803
 Root      6 :     9.551067170194028
 Root      7 :     9.551067170196383
 Root      8 :     9.677634538116525
 Root      9 :     9.677634538122344
 Root     10 :     9.809595865196876
 Root     11 :     9.848852175455201
 Root     12 :     9.897474008278541
 Root     13 :     9.897481994525805
 Root     14 :    11.157580895829680
 Root     15 :    11.157580895838640
 Root     16 :    11.360699957723530
 Root     17 :    11.379603442242780
 Root     18 :    11.379613336063110
 Root     19 :    11.649067641430080
 Root     20 :    13.191451573216400
 Root     21 :    13.191451573231800
 Root     22 :    13.460347986599480
 Root     23 :    13.460347986694610
 Root     24 :    20.340123664135520
 Iteration     2 Dimension    48 NMult    24 NNew     24
 Estimated number of processors is:   20
 CISAX will form     1 AO SS matrices at one time.
 NMat=     1 NSing=     1 JSym2X= 2.
 CoulSu:  requested number of processors reduced to:  18 ShMem   1 Linda.
 NMat=     1 NSing=     1 JSym2X= 2.
 CoulSu:  requested number of processors reduced to:  18 ShMem   1 Linda.
 NMat=     1 NSing=     1 JSym2X= 2.
 CoulSu:  requested number of processors reduced to:  18 ShMem   1 Linda.
 NMat=     1 NSing=     1 JSym2X= 2.
 CoulSu:  requested number of processors reduced to:  18 ShMem   1 Linda.
 NMat=     1 NSing=     1 JSym2X= 2.
 CoulSu:  requested number of processors reduced to:  18 ShMem   1 Linda.
 NMat=     1 NSing=     1 JSym2X= 2.
 CoulSu:  requested number of processors reduced to:  18 ShMem   1 Linda.
 NMat=     1 NSing=     1 JSym2X= 2.
 CoulSu:  requested number of processors reduced to:  18 ShMem   1 Linda.
 NMat=     1 NSing=     1 JSym2X= 2.
 CoulSu:  requested number of processors reduced to:  18 ShMem   1 Linda.
 NMat=     1 NSing=     1 JSym2X= 2.
 CoulSu:  requested number of processors reduced to:  18 ShMem   1 Linda.
 NMat=     1 NSing=     1 JSym2X= 2.
 CoulSu:  requested number of processors reduced to:  18 ShMem   1 Linda.
 NMat=     1 NSing=     1 JSym2X= 2.
 CoulSu:  requested number of processors reduced to:  18 ShMem   1 Linda.
 NMat=     1 NSing=     1 JSym2X= 2.
 CoulSu:  requested number of processors reduced to:  18 ShMem   1 Linda.
 NMat=     1 NSing=     1 JSym2X= 2.
 CoulSu:  requested number of processors reduced to:  18 ShMem   1 Linda.
 NMat=     1 NSing=     1 JSym2X= 2.
 CoulSu:  requested number of processors reduced to:  18 ShMem   1 Linda.
 NMat=     1 NSing=     1 JSym2X= 2.
 CoulSu:  requested number of processors reduced to:  18 ShMem   1 Linda.
 NMat=     1 NSing=     1 JSym2X= 2.
 CoulSu:  requested number of processors reduced to:  18 ShMem   1 Linda.
 NMat=     1 NSing=     1 JSym2X= 2.
 CoulSu:  requested number of processors reduced to:  18 ShMem   1 Linda.
 NMat=     1 NSing=     1 JSym2X= 2.
 CoulSu:  requested number of processors reduced to:  18 ShMem   1 Linda.
 NMat=     1 NSing=     1 JSym2X= 2.
 CoulSu:  requested number of processors reduced to:  18 ShMem   1 Linda.
 NMat=     1 NSing=     1 JSym2X= 2.
 CoulSu:  requested number of processors reduced to:  18 ShMem   1 Linda.
 NMat=     1 NSing=     1 JSym2X= 2.
 CoulSu:  requested number of processors reduced to:  18 ShMem   1 Linda.
 NMat=     1 NSing=     1 JSym2X= 2.
 CoulSu:  requested number of processors reduced to:  18 ShMem   1 Linda.
 NMat=     1 NSing=     1 JSym2X= 2.
 CoulSu:  requested number of processors reduced to:  18 ShMem   1 Linda.
 NMat=     1 NSing=     1 JSym2X= 2.
 CoulSu:  requested number of processors reduced to:  18 ShMem   1 Linda.
 DSYEVD-2 returned Info=          97 IAlg= 4 N=    48 NDim=    48 NE2=     2017540 trying  DSYEV.
 Root      1 not converged, maximum delta is    0.052209397106618
 Excitation Energies [eV] at current iteration:
 Root      1 :     5.271715609628863   Change is   -0.395383863051018
 Root      2 :     5.271799783189338   Change is   -0.395375722569504
 Root      3 :     7.609554416803841   Change is   -0.700986525982962
 Root      4 :     7.609554416806446   Change is   -0.700986525979302
 Root      5 :     7.655806865820503   Change is   -0.080344973826069
 Root      6 :     8.576057978470045   Change is   -1.233537886726831
 Root      7 :     9.317244480853622   Change is   -0.233822689340405
 Root      8 :     9.317244480855885   Change is   -0.233822689340497
 Root      9 :     9.488092987987493   Change is   -0.189541550129032
 Root     10 :     9.488092987993117   Change is   -0.189541550129228
 Root     11 :     9.747244211267484   Change is   -0.150237783258322
 Root     12 :     9.747244594052180   Change is   -0.150229414226362
 Root     13 :     9.772898977122704   Change is   -0.075953198332498
 Root     14 :    10.961814822094590   Change is   -9.378308842040930
 Root     15 :    11.063350447218350   Change is   -0.094230448611326
 Root     16 :    11.063350447226250   Change is   -0.094230448612388
 Root     17 :    11.286471016977440   Change is   -0.093132425265342
 Root     18 :    11.286486573655990   Change is   -0.093126762407120
 Root     19 :    11.314310228600060   Change is   -0.046389729123475
 Root     20 :    11.485288286151950   Change is   -0.163779355278124
 Root     21 :    11.534425822914130   Change is   -1.657025750302272
 Root     22 :    11.534425822919950   Change is   -1.657025750311853
 Root     23 :    13.269552258480200   Change is   -0.190795728119277
 Root     24 :    13.269552258537040   Change is   -0.190795728157572
 Iteration     3 Dimension    51 NMult    48 NNew      3
 Estimated number of processors is:   20
 CISAX will form     1 AO SS matrices at one time.
 NMat=     1 NSing=     1 JSym2X= 2.
 CoulSu:  requested number of processors reduced to:  18 ShMem   1 Linda.
 NMat=     1 NSing=     1 JSym2X= 2.
 CoulSu:  requested number of processors reduced to:  18 ShMem   1 Linda.
 NMat=     1 NSing=     1 JSym2X= 2.
 CoulSu:  requested number of processors reduced to:  18 ShMem   1 Linda.
 Root      1 not converged, maximum delta is    0.005062706966647
 Excitation Energies [eV] at current iteration:
 Root      1 :     5.265645670192982   Change is   -0.006069939435881
 Root      2 :     5.265729935716061   Change is   -0.006069847473276
 Root      3 :     7.556078115998031   Change is   -0.053476300805810
 Iteration     4 Dimension    54 NMult    51 NNew      3
 Estimated number of processors is:   20
 CISAX will form     1 AO SS matrices at one time.
 NMat=     1 NSing=     1 JSym2X= 2.
 CoulSu:  requested number of processors reduced to:  18 ShMem   1 Linda.
 NMat=     1 NSing=     1 JSym2X= 2.
 CoulSu:  requested number of processors reduced to:  18 ShMem   1 Linda.
 NMat=     1 NSing=     1 JSym2X= 2.
 CoulSu:  requested number of processors reduced to:  18 ShMem   1 Linda.
 Root      1 has converged.
 Excitation Energies [eV] at current iteration:
 Root      1 :     5.265627526045417   Change is   -0.000018144147566
 Root      2 :     5.265711793866721   Change is   -0.000018141849340
 Root      3 :     7.553966932723188   Change is   -0.002111183274844
 Convergence achieved on expansion vectors.
 ***********************************************************************
 Stability analysis using <AA,BB:AA,BB> singles matrix:
 ***********************************************************************
 1PDM for each excited state written to RWF  633
 Ground to excited state transition densities written to RWF  633

 Eigenvectors of the stability matrix:
 
 Excited state symmetry could not be determined.
 Eigenvector   1:  3.007-?Sym  Eigenvalue= 0.1935083  <S**2>=2.010
      6B ->  8B        0.67096
      6B ->  9B       -0.19616
      7B ->  8B        0.19616
      7B ->  9B        0.67096
 The wavefunction is stable under the perturbations considered.
 Leave Link  914 at Sat Apr 17 20:15:57 2021, MaxMem=   104857600 cpu:            2333.5 elap:              67.8
 (Enter /s/ls4/users/knvvv/bin/g16sse/l508.exe)
 The wavefunction is already stable.
 Leave Link  508 at Sat Apr 17 20:15:57 2021, MaxMem=   104857600 cpu:               2.2 elap:               0.1
 (Enter /s/ls4/users/knvvv/bin/g16sse/l601.exe)
 Copying SCF densities to generalized density rwf, IOpCl= 1 IROHF=0.

 **********************************************************************

            Population analysis using the SCF density.

 **********************************************************************

 Orbital symmetries:
 Alpha Orbitals:
       Occupied  (SGG) (SGU) (SGG) (SGU) (PIU) (PIU) (SGG) (PIG)
                 (PIG)
       Virtual   (SGU) (PIU) (PIU) (SGG) (PIG) (PIG) (SGG) (SGU)
                 (DLTG) (DLTG) (SGU) (SGG) (PIU) (PIU) (PIG) (PIG)
                 (PIU) (PIU) (DLTU) (DLTU) (SGU) (SGU) (PIG) (PIG)
                 (SGG) (SGG) (DLTG) (DLTG) (SGU) (PIU) (PIU) (SGG)
                 (DLTU) (DLTU) (PIU) (PIU) (PIG) (PIG) (SGU) (PIG)
                 (PIG) (SGG) (SGU) (DLTG) (DLTG) (PHIU) (PHIU)
                 (SGG) (PIU) (PIU) (PHIG) (PHIG) (SGG) (SGU) (DLTG)
                 (DLTG) (DLTU) (DLTU) (DLTU) (DLTU) (PIG) (PIG)
                 (PIU) (PIU) (SGU) (SGU) (PIG) (PIG) (SGG) (PIU)
                 (PIU) (SGG) (PIG) (PIG) (SGU) (DLTG) (DLTG) (PHIU)
                 (PHIU) (PIU) (PIU) (?A) (?A) (SGG) (?B) (?B) (PHIG)
                 (PHIG) (DLTU) (DLTU) (SGU) (PIG) (PIG) (PHIU)
                 (PHIU) (DLTG) (DLTG) (PHIG) (PHIG) (DLTU) (DLTU)
                 (PIG) (PIG) (SGU) (SGG) (PIU) (PIU) (DLTG) (DLTG)
                 (PIU) (PIU) (DLTU) (DLTU) (SGG) (SGU) (PIG) (PIG)
                 (SGG) (SGU) (SGG) (SGU) (SGG) (SGU)
 Beta  Orbitals:
       Occupied  (SGG) (SGU) (SGG) (SGU) (SGG) (PIU) (PIU)
       Virtual   (PIG) (PIG) (SGU) (PIU) (PIU) (SGG) (PIG) (PIG)
                 (SGG) (SGU) (DLTG) (DLTG) (SGU) (SGG) (PIU) (PIU)
                 (DLTU) (DLTU) (PIG) (PIG) (PIU) (PIU) (SGU) (SGU)
                 (PIG) (PIG) (SGG) (SGG) (DLTG) (DLTG) (SGU) (PIU)
                 (PIU) (SGG) (DLTU) (DLTU) (PIU) (PIU) (PIG) (PIG)
                 (SGU) (PIG) (PIG) (SGG) (SGU) (DLTG) (DLTG) (PHIU)
                 (PHIU) (SGG) (PIU) (PIU) (PHIG) (PHIG) (SGG) (SGU)
                 (DLTG) (DLTG) (DLTU) (DLTU) (DLTU) (DLTU) (PIG)
                 (PIG) (PIU) (PIU) (SGU) (SGU) (PIG) (PIG) (SGG)
                 (PIU) (PIU) (SGG) (PIG) (PIG) (SGU) (DLTG) (DLTG)
                 (PHIU) (PHIU) (PIU) (PIU) (SGG) (?A) (?A) (?B)
                 (?B) (PHIG) (PHIG) (DLTU) (DLTU) (SGU) (PIG) (PIG)
                 (PHIU) (PHIU) (DLTG) (DLTG) (PHIG) (PHIG) (DLTU)
                 (DLTU) (PIG) (PIG) (SGU) (SGG) (PIU) (PIU) (DLTG)
                 (DLTG) (PIU) (PIU) (DLTU) (DLTU) (SGG) (SGU) (PIG)
                 (PIG) (SGG) (SGU) (SGG) (SGU) (SGG) (SGU)
 The electronic state is 3-SGG.
 Alpha  occ. eigenvalues --  -19.79413 -19.79374  -1.44903  -0.96931  -0.67354
 Alpha  occ. eigenvalues --   -0.67354  -0.64639  -0.40499  -0.40499
 Alpha virt. eigenvalues --    0.03591   0.05406   0.05406   0.06194   0.09686
 Alpha virt. eigenvalues --    0.09686   0.10307   0.19109   0.28892   0.28892
 Alpha virt. eigenvalues --    0.30166   0.36751   0.38380   0.38380   0.42741
 Alpha virt. eigenvalues --    0.42741   0.43630   0.43630   0.44152   0.44152
 Alpha virt. eigenvalues --    0.44449   0.60040   0.63642   0.63642   0.65436
 Alpha virt. eigenvalues --    0.70633   1.10902   1.10902   1.19744   1.21939
 Alpha virt. eigenvalues --    1.21939   1.36611   1.41593   1.41594   1.42377
 Alpha virt. eigenvalues --    1.42377   1.48153   1.48153   1.57389   1.90635
 Alpha virt. eigenvalues --    1.90635   2.00945   2.14394   2.86574   2.86574
 Alpha virt. eigenvalues --    2.87876   2.87876   2.92840   3.14419   3.14419
 Alpha virt. eigenvalues --    3.27404   3.27404   3.51216   3.78591   3.82203
 Alpha virt. eigenvalues --    3.82203   3.89403   3.89404   3.99520   3.99523
 Alpha virt. eigenvalues --    4.00809   4.00809   4.14839   4.14839   4.36552
 Alpha virt. eigenvalues --    4.51590   4.67915   4.67915   4.92712   4.96672
 Alpha virt. eigenvalues --    4.96672   5.07203   5.52767   5.52767   7.85353
 Alpha virt. eigenvalues --    8.06030   8.06031   8.27201   8.27201   8.50790
 Alpha virt. eigenvalues --    8.50790   8.61866   8.61875   8.64147   8.75454
 Alpha virt. eigenvalues --    8.75463   9.18330   9.18330  10.23956  10.23956
 Alpha virt. eigenvalues --   10.46863  10.52434  10.52434  10.61130  10.61130
 Alpha virt. eigenvalues --   10.75727  10.75727  10.76303  10.76303  11.13383
 Alpha virt. eigenvalues --   11.13386  11.33914  11.33914  11.35673  11.36429
 Alpha virt. eigenvalues --   11.54876  11.54876  11.74468  11.74471  11.80407
 Alpha virt. eigenvalues --   11.80407  11.92990  11.92993  12.03882  13.45210
 Alpha virt. eigenvalues --   13.71284  13.71284  13.82539  15.62123  47.22270
 Alpha virt. eigenvalues --   47.96396 250.19562 251.00952
  Beta  occ. eigenvalues --  -19.76888 -19.76816  -1.37677  -0.86149  -0.59435
  Beta  occ. eigenvalues --   -0.53805  -0.53805
  Beta virt. eigenvalues --   -0.05995  -0.05995   0.04342   0.05988   0.05988
  Beta virt. eigenvalues --    0.06701   0.11098   0.11098   0.11231   0.19827
  Beta virt. eigenvalues --    0.29453   0.29453   0.32715   0.36607   0.38106
  Beta virt. eigenvalues --    0.38106   0.42776   0.42776   0.42779   0.42779
  Beta virt. eigenvalues --    0.44845   0.44845   0.45476   0.60874   0.63837
  Beta virt. eigenvalues --    0.63837   0.65334   0.70243   1.12755   1.12755
  Beta virt. eigenvalues --    1.20259   1.23845   1.23845   1.37220   1.44274
  Beta virt. eigenvalues --    1.44274   1.47611   1.47611   1.51156   1.51156
  Beta virt. eigenvalues --    1.57675   1.91888   1.91888   2.00928   2.14647
  Beta virt. eigenvalues --    2.86665   2.86665   2.88289   2.88289   2.93462
  Beta virt. eigenvalues --    3.16845   3.16845   3.28582   3.28582   3.54085
  Beta virt. eigenvalues --    3.78901   3.86708   3.86708   3.91822   3.91822
  Beta virt. eigenvalues --    4.01713   4.01714   4.02863   4.02863   4.15089
  Beta virt. eigenvalues --    4.15089   4.35522   4.53818   4.68833   4.68833
  Beta virt. eigenvalues --    4.90958   5.01823   5.01823   5.09082   5.56444
  Beta virt. eigenvalues --    5.56444   7.86719   8.05922   8.05922   8.28766
  Beta virt. eigenvalues --    8.28766   8.47613   8.47613   8.64971   8.66101
  Beta virt. eigenvalues --    8.66103   8.79839   8.79841   9.19436   9.19436
  Beta virt. eigenvalues --   10.22674  10.22675  10.46847  10.52604  10.52604
  Beta virt. eigenvalues --   10.73309  10.73309  10.80491  10.80491  10.89070
  Beta virt. eigenvalues --   10.89070  11.18706  11.18707  11.36833  11.36833
  Beta virt. eigenvalues --   11.37574  11.39491  11.58525  11.58525  11.86404
  Beta virt. eigenvalues --   11.86405  11.86752  11.86752  12.04518  12.04519
  Beta virt. eigenvalues --   12.06868  13.62448  13.74092  13.74092  13.95921
  Beta virt. eigenvalues --   15.59548  47.26108  48.00674 250.14727 250.96101
          Condensed to atoms (all electrons):
               1          2
     1  O    8.014291  -0.014291
     2  O   -0.014291   8.014291
          Atomic-Atomic Spin Densities.
               1          2
     1  O    1.360274  -0.360274
     2  O   -0.360274   1.360274
 Mulliken charges and spin densities:
               1          2
     1  O   -0.000000   1.000000
     2  O   -0.000000   1.000000
 Sum of Mulliken charges =  -0.00000   2.00000
 Mulliken charges and spin densities with hydrogens summed into heavy atoms:
               1          2
     1  O   -0.000000   1.000000
     2  O   -0.000000   1.000000
 Electronic spatial extent (au):  <R**2>=             43.6016
 Charge=             -0.0000 electrons
 Dipole moment (field-independent basis, Debye):
    X=             -0.0000    Y=              0.0000    Z=             -0.0000  Tot=              0.0000
 Quadrupole moment (field-independent basis, Debye-Ang):
   XX=            -10.0786   YY=            -10.0786   ZZ=            -10.4611
   XY=             -0.0000   XZ=              0.0000   YZ=              0.0000
 Traceless Quadrupole moment (field-independent basis, Debye-Ang):
   XX=              0.1275   YY=              0.1275   ZZ=             -0.2550
   XY=             -0.0000   XZ=              0.0000   YZ=              0.0000
 Octapole moment (field-independent basis, Debye-Ang**2):
  XXX=             -0.0000  YYY=              0.0000  ZZZ=              0.0000  XYY=             -0.0000
  XXY=              0.0000  XXZ=              0.0000  XZZ=             -0.0000  YZZ=              0.0000
  YYZ=              0.0000  XYZ=             -0.0000
 Hexadecapole moment (field-independent basis, Debye-Ang**3):
 XXXX=             -7.4785 YYYY=             -7.4785 ZZZZ=            -28.9206 XXXY=             -0.0000
 XXXZ=              0.0000 YYYX=             -0.0000 YYYZ=              0.0000 ZZZX=              0.0000
 ZZZY=              0.0000 XXYY=             -2.4928 XXZZ=             -6.3267 YYZZ=             -6.3267
 XXYZ=              0.0000 YYXZ=              0.0000 ZZXY=             -0.0000
 N-N= 2.804052119463D+01 E-N=-4.115939022815D+02  KE= 1.498468387139D+02
                          Isotropic Fermi Contact Couplings
        Atom                 a.u.       MegaHertz       Gauss      10(-4) cm-1
     1  O(17)              0.16493     -49.98900     -17.83732     -16.67453
     2  O(17)              0.16493     -49.98900     -17.83732     -16.67453
 PrsmSu:  requested number of processors reduced to:  21 ShMem   1 Linda.
 --------------------------------------------------------
       Center         ----  Spin Dipole Couplings  ----
                      3XX-RR        3YY-RR        3ZZ-RR
 --------------------------------------------------------
     1   Atom        1.316643      1.316643     -2.633286
     2   Atom        1.316643      1.316643     -2.633286
 --------------------------------------------------------
                        XY            XZ            YZ
 --------------------------------------------------------
     1   Atom        0.000000     -0.000000      0.000000
     2   Atom        0.000000     -0.000000      0.000000
 --------------------------------------------------------


 ---------------------------------------------------------------------------------
              Anisotropic Spin Dipole Couplings in Principal Axis System
 ---------------------------------------------------------------------------------

       Atom             a.u.   MegaHertz   Gauss  10(-4) cm-1        Axes

              Baa    -2.6333   190.543    67.990    63.558  0.0000  0.0000  1.0000
     1 O(17)  Bbb     1.3166   -95.271   -33.995   -31.779  0.0060  1.0000  0.0000
              Bcc     1.3166   -95.271   -33.995   -31.779  1.0000 -0.0060  0.0000
 
              Baa    -2.6333   190.543    67.990    63.558  0.0000  0.0000  1.0000
     2 O(17)  Bbb     1.3166   -95.271   -33.995   -31.779 -0.0061  1.0000 -0.0000
              Bcc     1.3166   -95.271   -33.995   -31.779  1.0000  0.0061  0.0000
 

 ---------------------------------------------------------------------------------

 PrsmSu:  requested number of processors reduced to:  21 ShMem   1 Linda.
 No NMR shielding tensors so no spin-rotation constants.
 Leave Link  601 at Sat Apr 17 20:16:02 2021, MaxMem=   104857600 cpu:             254.9 elap:               5.7
 (Enter /s/ls4/users/knvvv/bin/g16sse/l9999.exe)

 Test job not archived.
 1\1\GINC-N151\Stability\UM062X\Gen\O2(3)\KNVVV\17-Apr-2021\0\\#P M062X
 /GEN Integral=UltraFineGrid SCF=NoSymm Stable=(RExt, Opt) IOp(1/33=1)\
 \Database calculations.\\0,3\O,0,0.,0.,0.\O,0,0.,0.,1.2078\\Version=ES
 64L-G16RevA.03\State=3-SGG\HF=-150.3371178\S2=2.013471\S2-1=0.\S2A=2.0
 00088\RMSD=1.549e-09\Dipole=0.,0.,0.\Quadrupole=0.0948039,0.0948039,-0
 .1896078,0.,0.,0.\PG=D*H [C*(O1.O1)]\\@


 SOME PHYSICISTS WOULD PREFER TO COME BACK TO THE IDEA OF AN OBJECTIVE
 REAL WORLD WHOSE SMALLEST PARTS EXIST OBJECTIVELY IN THE SAME SENSE AS
 STONES OR TREES EXIST INDEPENDENTLY OF WHETHER WE OBSERVE THEM.
 THIS, HOWEVER, IS IMPOSSIBLE.  -- WERNER HEISENBERG
 Job cpu time:       0 days  2 hours 42 minutes 30.4 seconds.
 Elapsed time:       0 days  0 hours  3 minutes 46.7 seconds.
 File lengths (MBytes):  RWF=     79 Int=      0 D2E=      0 Chk=      4 Scr=      1
 Normal termination of Gaussian 16 at Sat Apr 17 20:16:03 2021.
