 Entering Gaussian System, Link 0=/s/ls4/users/knvvv/bin/g16sse/g16
 Input=data/database/M062X--BE17--14_CrCl2_SR-TM-BE17.gjf
 Output=data/database/M062X--BE17--14_CrCl2_SR-TM-BE17.log
 Initial command:
 /s/ls4/users/knvvv/bin/g16sse/l1.exe "/s/ls4/users/knvvv/bin/scratch/Gau-45595.inp" -scrdir="/s/ls4/users/knvvv/bin/scratch/"
 Entering Link 1 = /s/ls4/users/knvvv/bin/g16sse/l1.exe PID=     45596.
  
 Copyright (c) 1988,1990,1992,1993,1995,1998,2003,2009,2016,
            Gaussian, Inc.  All Rights Reserved.
  
 This is part of the Gaussian(R) 16 program.  It is based on
 the Gaussian(R) 09 system (copyright 2009, Gaussian, Inc.),
 the Gaussian(R) 03 system (copyright 2003, Gaussian, Inc.),
 the Gaussian(R) 98 system (copyright 1998, Gaussian, Inc.),
 the Gaussian(R) 94 system (copyright 1995, Gaussian, Inc.),
 the Gaussian 92(TM) system (copyright 1992, Gaussian, Inc.),
 the Gaussian 90(TM) system (copyright 1990, Gaussian, Inc.),
 the Gaussian 88(TM) system (copyright 1988, Gaussian, Inc.),
 the Gaussian 86(TM) system (copyright 1986, Carnegie Mellon
 University), and the Gaussian 82(TM) system (copyright 1983,
 Carnegie Mellon University). Gaussian is a federally registered
 trademark of Gaussian, Inc.
  
 This software contains proprietary and confidential information,
 including trade secrets, belonging to Gaussian, Inc.
  
 This software is provided under written license and may be
 used, copied, transmitted, or stored only in accord with that
 written license.
  
 The following legend is applicable only to US Government
 contracts under FAR:
  
                    RESTRICTED RIGHTS LEGEND
  
 Use, reproduction and disclosure by the US Government is
 subject to restrictions as set forth in subparagraphs (a)
 and (c) of the Commercial Computer Software - Restricted
 Rights clause in FAR 52.227-19.
  
 Gaussian, Inc.
 340 Quinnipiac St., Bldg. 40, Wallingford CT 06492
  
  
 ---------------------------------------------------------------
 Warning -- This program may not be used in any manner that
 competes with the business of Gaussian, Inc. or will provide
 assistance to any competitor of Gaussian, Inc.  The licensee
 of this program is prohibited from giving any competitor of
 Gaussian, Inc. access to this program.  By using this program,
 the user acknowledges that Gaussian, Inc. is engaged in the
 business of creating and licensing software in the field of
 computational chemistry and represents and warrants to the
 licensee that it is not a competitor of Gaussian, Inc. and that
 it will not use this program in any manner prohibited above.
 ---------------------------------------------------------------
  

 Cite this work as:
 Gaussian 16, Revision A.03,
 M. J. Frisch, G. W. Trucks, H. B. Schlegel, G. E. Scuseria, 
 M. A. Robb, J. R. Cheeseman, G. Scalmani, V. Barone, 
 G. A. Petersson, H. Nakatsuji, X. Li, M. Caricato, A. V. Marenich, 
 J. Bloino, B. G. Janesko, R. Gomperts, B. Mennucci, H. P. Hratchian, 
 J. V. Ortiz, A. F. Izmaylov, J. L. Sonnenberg, D. Williams-Young, 
 F. Ding, F. Lipparini, F. Egidi, J. Goings, B. Peng, A. Petrone, 
 T. Henderson, D. Ranasinghe, V. G. Zakrzewski, J. Gao, N. Rega, 
 G. Zheng, W. Liang, M. Hada, M. Ehara, K. Toyota, R. Fukuda, 
 J. Hasegawa, M. Ishida, T. Nakajima, Y. Honda, O. Kitao, H. Nakai, 
 T. Vreven, K. Throssell, J. A. Montgomery, Jr., J. E. Peralta, 
 F. Ogliaro, M. J. Bearpark, J. J. Heyd, E. N. Brothers, K. N. Kudin, 
 V. N. Staroverov, T. A. Keith, R. Kobayashi, J. Normand, 
 K. Raghavachari, A. P. Rendell, J. C. Burant, S. S. Iyengar, 
 J. Tomasi, M. Cossi, J. M. Millam, M. Klene, C. Adamo, R. Cammi, 
 J. W. Ochterski, R. L. Martin, K. Morokuma, O. Farkas, 
 J. B. Foresman, and D. J. Fox, Gaussian, Inc., Wallingford CT, 2016.
 
 ******************************************
 Gaussian 16:  ES64L-G16RevA.03 25-Dec-2016
                16-Apr-2021 
 ******************************************
 %RWF=temp4_70181,70GB
 %nprocshared=48
 Will use up to   48 processors via shared memory.
 Default route: MaxDisk=80GB
 ----------------------------------------------------------------------
 #P M062X/GEN Integral=UltraFineGrid SCF=NoSymm Stable=(RExt, Opt) IOp(
 1/33=1)
 ----------------------------------------------------------------------
 1/33=1,38=1,172=1/1;
 2/12=2,17=6,18=5,40=1/2;
 3/5=7,11=2,25=1,30=1,74=-55,75=-5/1,2,3;
 4/9=2/1;
 5/5=2,38=5/2;
 6/7=2,8=2,9=2,10=2,28=1/1;
 8/6=1,10=90,11=11/1;
 9/8=-3,42=1,46=1/14;
 5/5=2,8=3,17=40,38=5/8(-2);
 6/7=2,8=2,9=2,10=2,28=1/1;
 99/5=1,9=1/99;
 Leave Link    1 at Fri Apr 16 22:54:15 2021, MaxMem=           0 cpu:               8.2 elap:               0.2
 (Enter /s/ls4/users/knvvv/bin/g16sse/l101.exe)
 ONIOM data not found on unit 2.
 ----------------------
 Database calculations.
 ----------------------
 TstMul:  ICh=     0
 TstMul:  Mul=     5
 TstMul:  ICh=     0
 TstMul:  Mul=     5
 Symbolic Z-matrix:
 Charge =  0 Multiplicity = 5
 Cr                    0.        0.        0. 
 Cl                    0.        0.        2.21877 
 Cl                    0.        0.       -2.21877 
 
 RdStrC is calling ZToCFu for IStruc=1 NZ=     3.
 PrtBox:  NBox=     2 Levels=  1 BoxLen=    8.00 SMaxX=        8.39
          Shift=            0.000000            0.000000            4.192875
 Box      1 Number                   0 centers from      1 to      2:
 Box      2 Number                   1 centers from      3 to      3:
 After GenITR:
 ITRead=  0  0  0
 MicOpt= -1 -1 -1
 ITRead=  0  0  0
 MicOpt= -1 -1 -1
 NAtoms=      3 NQM=        3 NQMF=       0 NMMI=      0 NMMIF=      0
                NMic=       0 NMicF=      0.
                    Isotopes and Nuclear Properties:
 (Nuclear quadrupole moments (NQMom) in fm**2, nuclear magnetic moments (NMagM)
  in nuclear magnetons)

  Atom         1           2           3
 IAtWgt=          52          35          35
 AtmWgt=  51.9405097  34.9688527  34.9688527
 NucSpn=           0           3           3
 AtZEff=  -0.0000000  -0.0000000  -0.0000000
 NQMom=    0.0000000  -8.1650000  -8.1650000
 NMagM=    0.0000000   0.8218740   0.8218740
 AtZNuc=  24.0000000  17.0000000  17.0000000
 No MM parameters found.
 Leave Link  101 at Fri Apr 16 22:54:15 2021, MaxMem=   104857600 cpu:               8.2 elap:               0.2
 (Enter /s/ls4/users/knvvv/bin/g16sse/l202.exe)
                          Input orientation:                          
 ---------------------------------------------------------------------
 Center     Atomic      Atomic             Coordinates (Angstroms)
 Number     Number       Type             X           Y           Z
 ---------------------------------------------------------------------
      1         24           0        0.000000    0.000000    0.000000
      2         17           0        0.000000    0.000000    2.218774
      3         17           0        0.000000    0.000000   -2.218774
 ---------------------------------------------------------------------
                    Distance matrix (angstroms):
                    1          2          3
     1  Cr   0.000000
     2  Cl   2.218774   0.000000
     3  Cl   2.218774   4.437548   0.000000
 Stoichiometry    Cl2Cr(5)
 Framework group  D*H[O(Cr),C*(Cl.Cl)]
 Deg. of freedom     1
 Full point group                 D*H     NOp   8
 Largest Abelian subgroup         D2H     NOp   8
 Largest concise Abelian subgroup C2      NOp   2
                         Standard orientation:                         
 ---------------------------------------------------------------------
 Center     Atomic      Atomic             Coordinates (Angstroms)
 Number     Number       Type             X           Y           Z
 ---------------------------------------------------------------------
      1         24           0        0.000000    0.000000    0.000000
      2         17           0        0.000000    0.000000    2.218774
      3         17           0        0.000000    0.000000   -2.218774
 ---------------------------------------------------------------------
 Rotational constants (GHZ):           0.0000000           1.4678433           1.4678433
 Leave Link  202 at Fri Apr 16 22:54:15 2021, MaxMem=   104857600 cpu:              10.6 elap:               0.2
 (Enter /s/ls4/users/knvvv/bin/g16sse/l301.exe)
 General basis read from cards:  (5D, 7F)
 Centers:       2      3
 S 7 1.00
     Exponent=  6.9507990945D+04 Coefficients=  5.4314897497D-04
     Exponent=  1.0426156880D+04 Coefficients=  4.1990463961D-03
     Exponent=  2.3732334061D+03 Coefficients=  2.1592141679D-02
     Exponent=  6.7156420071D+02 Coefficients=  8.4598850094D-02
     Exponent=  2.1841999790D+02 Coefficients=  2.4757249724D-01
     Exponent=  7.7572249714D+01 Coefficients=  4.7016930228D-01
     Exponent=  2.8888815277D+01 Coefficients=  3.7436370716D-01
 S 3 1.00
     Exponent=  1.2710527185D+02 Coefficients=  2.5182166603D-02
     Exponent=  3.9339582961D+01 Coefficients=  1.0786112456D-01
     Exponent=  7.6740679989D+00 Coefficients= -2.7408821574D-01
 S 2 1.00
     Exponent=  3.8745627630D+00 Coefficients=  1.3213875014D+00
     Exponent=  1.8385832573D+00 Coefficients=  6.8636955368D-01
 S 1 1.00
     Exponent=  5.0229057542D-01 Coefficients=  1.0000000000D+00
 S 1 1.00
     Exponent=  1.7962723420D-01 Coefficients=  1.0000000000D+00
 S 1 1.00
     Exponent=  5.9875744733D-02 Coefficients=  1.0000000000D+00
 P 5 1.00
     Exponent=  6.6650423284D+02 Coefficients=  2.3632663836D-03
     Exponent=  1.5764241690D+02 Coefficients=  1.8879300374D-02
     Exponent=  5.0262520978D+01 Coefficients=  8.7206341273D-02
     Exponent=  1.8536078105D+01 Coefficients=  2.5285612970D-01
     Exponent=  7.2940532777D+00 Coefficients=  4.3507154820D-01
 P 1 1.00
     Exponent=  2.9433248995D+00 Coefficients=  1.0000000000D+00
 P 1 1.00
     Exponent=  1.0404970818D+00 Coefficients=  1.0000000000D+00
 P 1 1.00
     Exponent=  3.8456415080D-01 Coefficients=  1.0000000000D+00
 P 1 1.00
     Exponent=  1.3069642732D-01 Coefficients=  1.0000000000D+00
 P 1 1.00
     Exponent=  4.3565475773D-02 Coefficients=  1.0000000000D+00
 D 2 1.00
     Exponent=  4.6100000000D+00 Coefficients=  2.0000000000D-01
     Exponent=  1.0110000000D+00 Coefficients=  1.0000000000D+00
 D 1 1.00
     Exponent=  3.3900000000D-01 Coefficients=  1.0000000000D+00
 F 1 1.00
     Exponent=  7.0600000000D-01 Coefficients=  1.0000000000D+00
 ****
 Centers:       1
 S 8 1.00
     Exponent=  2.5447780704D+05 Coefficients=  2.3386945700D-04
     Exponent=  3.8131797054D+04 Coefficients=  1.8142601800D-03
     Exponent=  8.6752930607D+03 Coefficients=  9.4363925720D-03
     Exponent=  2.4550099848D+03 Coefficients=  3.8343639367D-02
     Exponent=  7.9916217787D+02 Coefficients=  1.2459194837D-01
     Exponent=  2.8690021489D+02 Coefficients=  2.9489696029D-01
     Exponent=  1.1125413232D+02 Coefficients=  4.1846149607D-01
     Exponent=  4.3864152636D+01 Coefficients=  2.1633763420D-01
 S 4 1.00
     Exponent=  2.7932669173D+02 Coefficients= -2.3450908111D-02
     Exponent=  8.6274732376D+01 Coefficients= -1.1080370027D-01
     Exponent=  1.3555756113D+01 Coefficients=  5.3028965842D-01
     Exponent=  5.6978112751D+00 Coefficients=  5.1603516947D-01
 S 2 1.00
     Exponent=  8.5636582615D+00 Coefficients= -3.8109545675D-01
     Exponent=  1.3988296768D+00 Coefficients=  1.1991591436D+00
 S 1 1.00
     Exponent=  5.7288171116D-01 Coefficients=  1.0000000000D+00
 S 1 1.00
     Exponent=  9.0096171317D-02 Coefficients=  1.0000000000D+00
 S 1 1.00
     Exponent=  3.4125885135D-02 Coefficients=  1.0000000000D+00
 P 6 1.00
     Exponent=  1.3064398864D+03 Coefficients=  2.4277326190D-03
     Exponent=  3.0925311441D+02 Coefficients=  1.9544041017D-02
     Exponent=  9.8996273963D+01 Coefficients=  9.0651794553D-02
     Exponent=  3.6756916451D+01 Coefficients=  2.5699279154D-01
     Exponent=  1.4566657077D+01 Coefficients=  4.0935504891D-01
     Exponent=  5.8739937432D+00 Coefficients=  2.3729388849D-01
 P 3 1.00
     Exponent=  2.2890999695D+01 Coefficients= -2.8166026613D-02
     Exponent=  3.0855001822D+00 Coefficients=  5.6034120148D-01
     Exponent=  1.2132329118D+00 Coefficients=  9.8119019650D-01
 P 1 1.00
     Exponent=  4.4931680699D-01 Coefficients=  1.0000000000D+00
 P 1 1.00
     Exponent=  1.2067500000D-01 Coefficients=  1.0000000000D+00
 D 4 1.00
     Exponent=  4.3720074476D+01 Coefficients=  1.3622964026D-02
     Exponent=  1.2391242652D+01 Coefficients=  7.8935180133D-02
     Exponent=  4.2639442006D+00 Coefficients=  2.3833840000D-01
     Exponent=  1.5525221790D+00 Coefficients=  3.9526851122D-01
 D 1 1.00
     Exponent=  5.3761929485D-01 Coefficients=  4.1061717056D-01
 D 1 1.00
     Exponent=  1.6493173074D-01 Coefficients=  2.4440410795D-01
 D 1 1.00
     Exponent=  5.1000000000D-02 Coefficients=  1.0000000000D+00
 F 1 1.00
     Exponent=  1.1470000000D+00 Coefficients=  1.0000000000D+00
 ****
 Ernie: Thresh=  0.10000D-02 Tol=  0.10000D-05 Strict=F.
 There are    39 symmetry adapted cartesian basis functions of AG  symmetry.
 There are     7 symmetry adapted cartesian basis functions of B1G symmetry.
 There are    15 symmetry adapted cartesian basis functions of B2G symmetry.
 There are    15 symmetry adapted cartesian basis functions of B3G symmetry.
 There are     4 symmetry adapted cartesian basis functions of AU  symmetry.
 There are    28 symmetry adapted cartesian basis functions of B1U symmetry.
 There are    18 symmetry adapted cartesian basis functions of B2U symmetry.
 There are    18 symmetry adapted cartesian basis functions of B3U symmetry.
 There are    32 symmetry adapted basis functions of AG  symmetry.
 There are     7 symmetry adapted basis functions of B1G symmetry.
 There are    14 symmetry adapted basis functions of B2G symmetry.
 There are    14 symmetry adapted basis functions of B3G symmetry.
 There are     4 symmetry adapted basis functions of AU  symmetry.
 There are    24 symmetry adapted basis functions of B1U symmetry.
 There are    16 symmetry adapted basis functions of B2U symmetry.
 There are    16 symmetry adapted basis functions of B3U symmetry.
   127 basis functions,   248 primitive gaussians,   144 cartesian basis functions
    31 alpha electrons       27 beta electrons
       nuclear repulsion energy       229.0790820014 Hartrees.
 IExCor= 4336 DFT=T Ex+Corr=M062X ExCW=0 ScaHFX=  0.540000
 ScaDFX=  1.000000  1.000000  1.000000  1.000000 ScalE2=  1.000000  1.000000
 IRadAn=      5 IRanWt=     -1 IRanGd=            0 ICorTp=0 IEmpDi=  4
 NAtoms=    3 NActive=    3 NUniq=    2 SFac= 2.25D+00 NAtFMM=   60 NAOKFM=F Big=F
 Integral buffers will be    131072 words long.
 Raffenetti 2 integral format.
 Two-electron integral symmetry is turned on.
 Leave Link  301 at Fri Apr 16 22:54:16 2021, MaxMem=   104857600 cpu:               9.9 elap:               0.2
 (Enter /s/ls4/users/knvvv/bin/g16sse/l302.exe)
 NPDir=0 NMtPBC=     1 NCelOv=     1 NCel=       1 NClECP=     1 NCelD=      1
         NCelK=      1 NCelE2=     1 NClLst=     1 CellRange=     0.0.
 One-electron integrals computed using PRISM.
 One-electron integral symmetry used in STVInt
 PrsmSu:  requested number of processors reduced to:  13 ShMem   1 Linda.
 NBasis=   127 RedAO= T EigKep=  1.12D-03  NBF=    32     7    14    14     4    24    16    16
 NBsUse=   127 1.00D-06 EigRej= -1.00D+00 NBFU=    32     7    14    14     4    24    16    16
 Precomputing XC quadrature grid using
 IXCGrd= 4 IRadAn=           5 IRanWt=          -1 IRanGd=           0 AccXCQ= 0.00D+00.
 Generated NRdTot=       0 NPtTot=           0 NUsed=           0 NTot=          32
 NSgBfM=   141   141   141   141   141 MxSgAt=     3 MxSgA2=     3.
 Leave Link  302 at Fri Apr 16 22:54:21 2021, MaxMem=   104857600 cpu:             262.5 elap:               5.6
 (Enter /s/ls4/users/knvvv/bin/g16sse/l303.exe)
 DipDrv:  MaxL=1.
 Leave Link  303 at Fri Apr 16 22:54:22 2021, MaxMem=   104857600 cpu:              16.8 elap:               0.4
 (Enter /s/ls4/users/knvvv/bin/g16sse/l401.exe)
 SCF N**3 symmetry information disabled.
 ExpMin= 3.41D-02 ExpMax= 2.54D+05 ExpMxC= 2.46D+03 IAcc=3 IRadAn=         5 AccDes= 0.00D+00
 Harris functional with IExCor= 1009 and IRadAn=       5 diagonalized for initial guess.
 HarFok:  IExCor= 1009 AccDes= 0.00D+00 IRadAn=         5 IDoV= 1 UseB2=F ITyADJ=14
 ICtDFT=  3500011 ScaDFX=  1.000000  1.000000  1.000000  1.000000
 FoFCou: FMM=F IPFlag=           0 FMFlag=      100000 FMFlg1=           0
         NFxFlg=           0 DoJE=T BraDBF=F KetDBF=T FulRan=T
         wScrn=  0.000000 ICntrl=       500 IOpCl=  0 I1Cent=   200000004 NGrid=           0
         NMat0=    1 NMatS0=      1 NMatT0=    0 NMatD0=    1 NMtDS0=    0 NMtDT0=    0
 Petite list used in FoFCou.
 Harris En= -1964.12315618279    
 JPrj=0 DoOrth=F DoCkMO=F.
 Initial guess orbital symmetries:
 Alpha Orbitals:
       Occupied  (SGG) (SGG) (SGU) (SGG) (PIU) (PIU) (SGU) (SGG)
                 (SGU) (SGG) (SGU) (PIG) (PIG) (PIU) (PIU) (SGG)
                 (SGU) (PIU) (PIU) (SGG) (SGU) (SGG) (SGU) (PIG)
                 (PIG) (PIU) (PIU) (SGG) (DLTG) (DLTG) (PIG)
       Virtual   (PIG) (SGG) (PIU) (PIU) (SGU) (PIG) (PIG) (SGG)
                 (SGG) (DLTG) (DLTG) (SGU) (PIU) (PIU) (PIG) (PIG)
                 (SGG) (SGG) (SGU) (DLTU) (DLTU) (PIG) (PIG) (DLTG)
                 (DLTG) (SGG) (PIU) (PIU) (SGU) (PIU) (PIU) (PIG)
                 (PIG) (DLTG) (DLTG) (SGU) (SGG) (PIG) (PIG) (SGG)
                 (SGU) (SGG) (PIU) (PIU) (SGU) (DLTU) (DLTU) (DLTG)
                 (DLTG) (PIU) (PIU) (SGG) (PIG) (PIG) (SGU) (SGG)
                 (PIU) (PIU) (DLTU) (DLTU) (DLTG) (DLTG) (PHIU)
                 (PHIU) (PHIG) (PHIG) (PIG) (PIG) (DLTG) (DLTG)
                 (PIU) (PIU) (SGU) (PIG) (PIG) (PIG) (PIG) (SGG)
                 (SGU) (SGG) (PHIU) (PHIU) (DLTU) (DLTU) (SGG)
                 (PIU) (PIU) (SGU) (PIU) (PIU) (PIG) (PIG) (SGU)
                 (SGG) (SGU) (SGG)
 Beta  Orbitals:
       Occupied  (SGG) (SGG) (SGU) (SGG) (PIU) (PIU) (SGU) (SGG)
                 (SGU) (SGG) (SGU) (PIG) (PIG) (PIU) (PIU) (SGG)
                 (SGU) (PIU) (PIU) (SGG) (SGU) (SGG) (SGU) (PIG)
                 (PIG) (PIU) (PIU)
       Virtual   (SGG) (DLTG) (DLTG) (PIG) (PIG) (SGG) (PIU) (PIU)
                 (SGU) (PIG) (PIG) (SGG) (SGG) (DLTG) (DLTG) (SGU)
                 (PIU) (PIU) (PIG) (PIG) (SGG) (SGG) (SGU) (DLTU)
                 (DLTU) (PIG) (PIG) (DLTG) (DLTG) (SGG) (PIU) (PIU)
                 (SGU) (PIU) (PIU) (PIG) (PIG) (DLTG) (DLTG) (SGU)
                 (SGG) (PIG) (PIG) (SGG) (SGU) (SGG) (PIU) (PIU)
                 (SGU) (DLTU) (DLTU) (DLTG) (DLTG) (PIU) (PIU)
                 (SGG) (PIG) (PIG) (SGU) (SGG) (PIU) (PIU) (DLTU)
                 (DLTU) (DLTG) (DLTG) (PHIU) (PHIU) (PHIG) (PHIG)
                 (PIG) (PIG) (DLTG) (DLTG) (PIU) (PIU) (SGU) (PIG)
                 (PIG) (PIG) (PIG) (SGG) (SGU) (SGG) (PHIU) (PHIU)
                 (DLTU) (DLTU) (SGG) (PIU) (PIU) (SGU) (PIU) (PIU)
                 (PIG) (PIG) (SGU) (SGG) (SGU) (SGG)
 Initial guess <Sx>= 0.0000 <Sy>= 0.0000 <Sz>= 2.0000 <S**2>= 6.0000 S= 2.0000
 Leave Link  401 at Fri Apr 16 22:54:25 2021, MaxMem=   104857600 cpu:             147.9 elap:               3.2
 (Enter /s/ls4/users/knvvv/bin/g16sse/l502.exe)
 Keep R1 and R2 ints in memory in symmetry-blocked form, NReq=79697050.
 FoFCou: FMM=F IPFlag=           0 FMFlag=           0 FMFlg1=           0
         NFxFlg=           0 DoJE=F BraDBF=F KetDBF=F FulRan=T
         wScrn=  0.000000 ICntrl=       600 IOpCl=  0 I1Cent=           0 NGrid=           0
         NMat0=    1 NMatS0=   8128 NMatT0=    0 NMatD0=    1 NMtDS0=    0 NMtDT0=    0
 Petite list used in FoFCou.
 CoulSu:  requested number of processors reduced to:  36 ShMem   1 Linda.
 UHF open shell SCF:
 Using DIIS extrapolation, IDIIS=  1040.
 NGot=   104857600 LenX=    96217442 LenY=    96196265
 Requested convergence on RMS density matrix=1.00D-08 within 128 cycles.
 Requested convergence on MAX density matrix=1.00D-06.
 Requested convergence on             energy=1.00D-06.
 No special actions if energy rises.

 Cycle   1  Pass 1  IDiag  1:
 E= -1964.19716479732    
 DIIS: error= 1.86D-01 at cycle   1 NSaved=   1.
 NSaved= 1 IEnMin= 1 EnMin= -1964.19716479732     IErMin= 1 ErrMin= 1.86D-01
 ErrMax= 1.86D-01  0.00D+00 EMaxC= 1.00D-01 BMatC= 4.13D+00 BMatP= 4.13D+00
 IDIUse=3 WtCom= 0.00D+00 WtEn= 1.00D+00
 Coeff-Com:  0.100D+01
 Coeff-En:   0.100D+01
 Coeff:      0.100D+01
 Gap=     0.259 Goal=   None    Shift=    0.000
 Gap=    -0.060 Goal=   None    Shift=    0.000
 GapD=   -0.060 DampG=0.250 DampE=0.125 DampFc=0.1250 IDamp=-1.
 Damping current iteration by 1.25D-01
 RMSDP=2.03D-02 MaxDP=9.37D-01              OVMax= 1.00D+00

 Cycle   2  Pass 1  IDiag  1:
 E= -1964.33689119761     Delta-E=       -0.139726400300 Rises=F Damp=T
 DIIS: error= 6.93D-02 at cycle   2 NSaved=   2.
 NSaved= 2 IEnMin= 2 EnMin= -1964.33689119761     IErMin= 2 ErrMin= 6.93D-02
 ErrMax= 6.93D-02  0.00D+00 EMaxC= 1.00D-01 BMatC= 8.45D-01 BMatP= 4.13D+00
 IDIUse=3 WtCom= 3.07D-01 WtEn= 6.93D-01
 Coeff-Com: -0.496D+00 0.150D+01
 Coeff-En:   0.263D+00 0.737D+00
 Coeff:      0.300D-01 0.970D+00
 Gap=     0.033 Goal=   None    Shift=    0.000
 Gap=    -0.089 Goal=   None    Shift=    0.000
 RMSDP=5.41D-03 MaxDP=3.20D-01 DE=-1.40D-01 OVMax= 1.00D+00

 Cycle   3  Pass 1  IDiag  1:
 E= -1964.83998053479     Delta-E=       -0.503089337173 Rises=F Damp=F
 DIIS: error= 4.25D-02 at cycle   3 NSaved=   3.
 NSaved= 3 IEnMin= 3 EnMin= -1964.83998053479     IErMin= 3 ErrMin= 4.25D-02
 ErrMax= 4.25D-02  0.00D+00 EMaxC= 1.00D-01 BMatC= 5.76D-01 BMatP= 8.45D-01
 IDIUse=3 WtCom= 5.75D-01 WtEn= 4.25D-01
 Coeff-Com:  0.179D+00 0.133D+00 0.688D+00
 Coeff-En:   0.501D-01 0.000D+00 0.950D+00
 Coeff:      0.124D+00 0.764D-01 0.799D+00
 Gap=     0.252 Goal=   None    Shift=    0.000
 Gap=     0.407 Goal=   None    Shift=    0.000
 RMSDP=2.83D-03 MaxDP=6.49D-02 DE=-5.03D-01 OVMax= 1.66D-01

 Cycle   4  Pass 1  IDiag  1:
 E= -1964.90594071646     Delta-E=       -0.065960181674 Rises=F Damp=F
 DIIS: error= 2.90D-02 at cycle   4 NSaved=   4.
 NSaved= 4 IEnMin= 4 EnMin= -1964.90594071646     IErMin= 4 ErrMin= 2.90D-02
 ErrMax= 2.90D-02  0.00D+00 EMaxC= 1.00D-01 BMatC= 1.66D-01 BMatP= 5.76D-01
 IDIUse=3 WtCom= 7.10D-01 WtEn= 2.90D-01
 Coeff-Com: -0.160D+00 0.191D+00 0.184D+00 0.786D+00
 Coeff-En:   0.000D+00 0.000D+00 0.194D+00 0.806D+00
 Coeff:     -0.114D+00 0.135D+00 0.187D+00 0.792D+00
 Gap=     0.254 Goal=   None    Shift=    0.000
 Gap=     0.288 Goal=   None    Shift=    0.000
 RMSDP=1.23D-03 MaxDP=5.61D-02 DE=-6.60D-02 OVMax= 8.70D-02

 Cycle   5  Pass 1  IDiag  1:
 E= -1964.93576743255     Delta-E=       -0.029826716092 Rises=F Damp=F
 DIIS: error= 4.76D-03 at cycle   5 NSaved=   5.
 NSaved= 5 IEnMin= 5 EnMin= -1964.93576743255     IErMin= 5 ErrMin= 4.76D-03
 ErrMax= 4.76D-03  0.00D+00 EMaxC= 1.00D-01 BMatC= 3.52D-03 BMatP= 1.66D-01
 IDIUse=3 WtCom= 9.52D-01 WtEn= 4.76D-02
 Coeff-Com: -0.770D-01 0.971D-01-0.481D-01 0.973D-01 0.931D+00
 Coeff-En:   0.000D+00 0.000D+00 0.000D+00 0.000D+00 0.100D+01
 Coeff:     -0.733D-01 0.925D-01-0.458D-01 0.927D-01 0.934D+00
 Gap=     0.254 Goal=   None    Shift=    0.000
 Gap=     0.261 Goal=   None    Shift=    0.000
 RMSDP=3.27D-04 MaxDP=1.25D-02 DE=-2.98D-02 OVMax= 2.05D-02

 Cycle   6  Pass 1  IDiag  1:
 E= -1964.93745300973     Delta-E=       -0.001685577178 Rises=F Damp=F
 DIIS: error= 3.63D-03 at cycle   6 NSaved=   6.
 NSaved= 6 IEnMin= 6 EnMin= -1964.93745300973     IErMin= 6 ErrMin= 3.63D-03
 ErrMax= 3.63D-03  0.00D+00 EMaxC= 1.00D-01 BMatC= 1.91D-03 BMatP= 3.52D-03
 IDIUse=3 WtCom= 9.64D-01 WtEn= 3.63D-02
 Coeff-Com:  0.514D-02 0.620D-03-0.298D-02-0.156D+00-0.259D+00 0.141D+01
 Coeff-En:   0.000D+00 0.000D+00 0.000D+00 0.000D+00 0.000D+00 0.100D+01
 Coeff:      0.495D-02 0.598D-03-0.287D-02-0.150D+00-0.250D+00 0.140D+01
 Gap=     0.252 Goal=   None    Shift=    0.000
 Gap=     0.261 Goal=   None    Shift=    0.000
 RMSDP=3.01D-04 MaxDP=1.72D-02 DE=-1.69D-03 OVMax= 2.45D-02

 Cycle   7  Pass 1  IDiag  1:
 E= -1964.93818846048     Delta-E=       -0.000735450748 Rises=F Damp=F
 DIIS: error= 7.53D-04 at cycle   7 NSaved=   7.
 NSaved= 7 IEnMin= 7 EnMin= -1964.93818846048     IErMin= 7 ErrMin= 7.53D-04
 ErrMax= 7.53D-04  0.00D+00 EMaxC= 1.00D-01 BMatC= 1.77D-04 BMatP= 1.91D-03
 IDIUse=3 WtCom= 9.92D-01 WtEn= 7.53D-03
 Coeff-Com:  0.919D-02-0.103D-01-0.701D-03-0.347D-01-0.116D+00 0.345D+00
 Coeff-Com:  0.808D+00
 Coeff-En:   0.000D+00 0.000D+00 0.000D+00 0.000D+00 0.000D+00 0.000D+00
 Coeff-En:   0.100D+01
 Coeff:      0.912D-02-0.102D-01-0.696D-03-0.344D-01-0.115D+00 0.342D+00
 Coeff:      0.809D+00
 Gap=     0.253 Goal=   None    Shift=    0.000
 Gap=     0.267 Goal=   None    Shift=    0.000
 RMSDP=7.41D-05 MaxDP=5.97D-03 DE=-7.35D-04 OVMax= 3.30D-03

 Cycle   8  Pass 1  IDiag  1:
 E= -1964.93822814728     Delta-E=       -0.000039686801 Rises=F Damp=F
 DIIS: error= 5.65D-04 at cycle   8 NSaved=   8.
 NSaved= 8 IEnMin= 8 EnMin= -1964.93822814728     IErMin= 8 ErrMin= 5.65D-04
 ErrMax= 5.65D-04  0.00D+00 EMaxC= 1.00D-01 BMatC= 6.46D-05 BMatP= 1.77D-04
 IDIUse=3 WtCom= 9.94D-01 WtEn= 5.65D-03
 Coeff-Com:  0.163D-02-0.208D-02-0.432D-02 0.140D-01 0.236D-01-0.674D-01
 Coeff-Com:  0.569D-01 0.978D+00
 Coeff-En:   0.000D+00 0.000D+00 0.000D+00 0.000D+00 0.000D+00 0.000D+00
 Coeff-En:   0.000D+00 0.100D+01
 Coeff:      0.162D-02-0.207D-02-0.429D-02 0.139D-01 0.234D-01-0.670D-01
 Coeff:      0.566D-01 0.978D+00
 Gap=     0.253 Goal=   None    Shift=    0.000
 Gap=     0.267 Goal=   None    Shift=    0.000
 RMSDP=3.63D-05 MaxDP=2.39D-03 DE=-3.97D-05 OVMax= 9.01D-04

 Cycle   9  Pass 1  IDiag  1:
 E= -1964.93823919158     Delta-E=       -0.000011044300 Rises=F Damp=F
 DIIS: error= 1.51D-04 at cycle   9 NSaved=   9.
 NSaved= 9 IEnMin= 9 EnMin= -1964.93823919158     IErMin= 9 ErrMin= 1.51D-04
 ErrMax= 1.51D-04  0.00D+00 EMaxC= 1.00D-01 BMatC= 4.52D-06 BMatP= 6.46D-05
 IDIUse=3 WtCom= 9.98D-01 WtEn= 1.51D-03
 Coeff-Com: -0.110D-04-0.399D-03 0.265D-03 0.674D-02 0.117D-01-0.412D-01
 Coeff-Com: -0.107D+00-0.157D-01 0.115D+01
 Coeff-En:   0.000D+00 0.000D+00 0.000D+00 0.000D+00 0.000D+00 0.000D+00
 Coeff-En:   0.000D+00 0.000D+00 0.100D+01
 Coeff:     -0.110D-04-0.398D-03 0.265D-03 0.673D-02 0.117D-01-0.411D-01
 Coeff:     -0.106D+00-0.156D-01 0.114D+01
 Gap=     0.253 Goal=   None    Shift=    0.000
 Gap=     0.266 Goal=   None    Shift=    0.000
 RMSDP=2.47D-05 MaxDP=1.78D-03 DE=-1.10D-05 OVMax= 6.55D-04

 Cycle  10  Pass 1  IDiag  1:
 E= -1964.93824057488     Delta-E=       -0.000001383295 Rises=F Damp=F
 DIIS: error= 1.27D-05 at cycle  10 NSaved=  10.
 NSaved=10 IEnMin=10 EnMin= -1964.93824057488     IErMin=10 ErrMin= 1.27D-05
 ErrMax= 1.27D-05  0.00D+00 EMaxC= 1.00D-01 BMatC= 4.69D-08 BMatP= 4.52D-06
 IDIUse=1 WtCom= 1.00D+00 WtEn= 0.00D+00
 Coeff-Com:  0.423D-04 0.455D-04 0.701D-04-0.179D-02-0.191D-02 0.598D-02
 Coeff-Com: -0.795D-02-0.515D-01-0.913D-02 0.107D+01
 Coeff:      0.423D-04 0.455D-04 0.701D-04-0.179D-02-0.191D-02 0.598D-02
 Coeff:     -0.795D-02-0.515D-01-0.913D-02 0.107D+01
 Gap=     0.253 Goal=   None    Shift=    0.000
 Gap=     0.266 Goal=   None    Shift=    0.000
 RMSDP=4.68D-06 MaxDP=3.06D-04 DE=-1.38D-06 OVMax= 1.98D-04

 Cycle  11  Pass 1  IDiag  1:
 E= -1964.93824062650     Delta-E=       -0.000000051624 Rises=F Damp=F
 DIIS: error= 4.04D-06 at cycle  11 NSaved=  11.
 NSaved=11 IEnMin=11 EnMin= -1964.93824062650     IErMin=11 ErrMin= 4.04D-06
 ErrMax= 4.04D-06  0.00D+00 EMaxC= 1.00D-01 BMatC= 1.96D-09 BMatP= 4.69D-08
 IDIUse=1 WtCom= 1.00D+00 WtEn= 0.00D+00
 Coeff-Com: -0.124D-04 0.732D-05-0.701D-06 0.114D-03 0.212D-03-0.321D-03
 Coeff-Com:  0.226D-02 0.102D-01-0.427D-01-0.117D+00 0.115D+01
 Coeff:     -0.124D-04 0.732D-05-0.701D-06 0.114D-03 0.212D-03-0.321D-03
 Coeff:      0.226D-02 0.102D-01-0.427D-01-0.117D+00 0.115D+01
 Gap=     0.253 Goal=   None    Shift=    0.000
 Gap=     0.266 Goal=   None    Shift=    0.000
 RMSDP=5.13D-07 MaxDP=3.16D-05 DE=-5.16D-08 OVMax= 4.62D-05

 Cycle  12  Pass 1  IDiag  1:
 E= -1964.93824062875     Delta-E=       -0.000000002249 Rises=F Damp=F
 DIIS: error= 1.35D-06 at cycle  12 NSaved=  12.
 NSaved=12 IEnMin=12 EnMin= -1964.93824062875     IErMin=12 ErrMin= 1.35D-06
 ErrMax= 1.35D-06  0.00D+00 EMaxC= 1.00D-01 BMatC= 1.40D-10 BMatP= 1.96D-09
 IDIUse=1 WtCom= 1.00D+00 WtEn= 0.00D+00
 Coeff-Com:  0.304D-06 0.632D-06-0.278D-05 0.552D-05-0.375D-04-0.724D-04
 Coeff-Com: -0.104D-03-0.320D-02 0.141D-01 0.136D-01-0.424D+00 0.140D+01
 Coeff:      0.304D-06 0.632D-06-0.278D-05 0.552D-05-0.375D-04-0.724D-04
 Coeff:     -0.104D-03-0.320D-02 0.141D-01 0.136D-01-0.424D+00 0.140D+01
 Gap=     0.253 Goal=   None    Shift=    0.000
 Gap=     0.266 Goal=   None    Shift=    0.000
 RMSDP=1.67D-07 MaxDP=4.05D-06 DE=-2.25D-09 OVMax= 2.28D-05

 Cycle  13  Pass 1  IDiag  1:
 E= -1964.93824062902     Delta-E=       -0.000000000268 Rises=F Damp=F
 DIIS: error= 3.25D-07 at cycle  13 NSaved=  13.
 NSaved=13 IEnMin=13 EnMin= -1964.93824062902     IErMin=13 ErrMin= 3.25D-07
 ErrMax= 3.25D-07  0.00D+00 EMaxC= 1.00D-01 BMatC= 1.43D-11 BMatP= 1.40D-10
 IDIUse=1 WtCom= 1.00D+00 WtEn= 0.00D+00
 Coeff-Com:  0.510D-06-0.561D-06 0.210D-07-0.663D-05 0.151D-04 0.312D-04
 Coeff-Com: -0.184D-03 0.685D-03-0.297D-02 0.800D-02 0.553D-01-0.520D+00
 Coeff-Com:  0.146D+01
 Coeff:      0.510D-06-0.561D-06 0.210D-07-0.663D-05 0.151D-04 0.312D-04
 Coeff:     -0.184D-03 0.685D-03-0.297D-02 0.800D-02 0.553D-01-0.520D+00
 Coeff:      0.146D+01
 Gap=     0.253 Goal=   None    Shift=    0.000
 Gap=     0.266 Goal=   None    Shift=    0.000
 RMSDP=6.43D-08 MaxDP=1.71D-06 DE=-2.68D-10 OVMax= 9.13D-06

 Cycle  14  Pass 1  IDiag  1:
 E= -1964.93824062906     Delta-E=       -0.000000000038 Rises=F Damp=F
 DIIS: error= 5.78D-08 at cycle  14 NSaved=  14.
 NSaved=14 IEnMin=14 EnMin= -1964.93824062906     IErMin=14 ErrMin= 5.78D-08
 ErrMax= 5.78D-08  0.00D+00 EMaxC= 1.00D-01 BMatC= 9.87D-13 BMatP= 1.43D-11
 IDIUse=1 WtCom= 1.00D+00 WtEn= 0.00D+00
 Coeff-Com: -0.294D-06 0.359D-06-0.311D-06 0.126D-05 0.605D-06-0.517D-05
 Coeff-Com:  0.292D-04-0.166D-03 0.357D-03-0.209D-02-0.295D-02 0.101D+00
 Coeff-Com: -0.432D+00 0.134D+01
 Coeff:     -0.294D-06 0.359D-06-0.311D-06 0.126D-05 0.605D-06-0.517D-05
 Coeff:      0.292D-04-0.166D-03 0.357D-03-0.209D-02-0.295D-02 0.101D+00
 Coeff:     -0.432D+00 0.134D+01
 Gap=     0.253 Goal=   None    Shift=    0.000
 Gap=     0.266 Goal=   None    Shift=    0.000
 RMSDP=1.56D-08 MaxDP=4.71D-07 DE=-3.77D-11 OVMax= 1.48D-06

 Cycle  15  Pass 1  IDiag  1:
 E= -1964.93824062905     Delta-E=        0.000000000005 Rises=F Damp=F
 DIIS: error= 1.75D-08 at cycle  15 NSaved=  15.
 NSaved=15 IEnMin=14 EnMin= -1964.93824062906     IErMin=15 ErrMin= 1.75D-08
 ErrMax= 1.75D-08  0.00D+00 EMaxC= 1.00D-01 BMatC= 6.34D-14 BMatP= 9.87D-13
 IDIUse=1 WtCom= 1.00D+00 WtEn= 0.00D+00
 Coeff-Com:  0.433D-07-0.496D-07 0.108D-06-0.259D-06-0.956D-06-0.167D-05
 Coeff-Com:  0.689D-05 0.201D-04 0.350D-04 0.195D-03-0.242D-02 0.220D-02
 Coeff-Com:  0.333D-01-0.368D+00 0.133D+01
 Coeff:      0.433D-07-0.496D-07 0.108D-06-0.259D-06-0.956D-06-0.167D-05
 Coeff:      0.689D-05 0.201D-04 0.350D-04 0.195D-03-0.242D-02 0.220D-02
 Coeff:      0.333D-01-0.368D+00 0.133D+01
 Gap=     0.253 Goal=   None    Shift=    0.000
 Gap=     0.266 Goal=   None    Shift=    0.000
 RMSDP=2.76D-09 MaxDP=1.52D-07 DE= 4.55D-12 OVMax= 2.80D-07

 SCF Done:  E(UM062X) =  -1964.93824063     A.U. after   15 cycles
            NFock= 15  Conv=0.28D-08     -V/T= 2.0010
 <Sx>= 0.0000 <Sy>= 0.0000 <Sz>= 2.0000 <S**2>= 6.0187 S= 2.0037
 <L.S>= 0.000000000000E+00
 KE= 1.962885107445D+03 PE=-5.127289071401D+03 EE= 9.703866413254D+02
 Annihilation of the first spin contaminant:
 S**2 before annihilation     6.0187,   after     6.0001
 Leave Link  502 at Fri Apr 16 22:57:09 2021, MaxMem=   104857600 cpu:            7700.9 elap:             163.9
 (Enter /s/ls4/users/knvvv/bin/g16sse/l601.exe)
 Copying SCF densities to generalized density rwf, IOpCl= 1 IROHF=0.

 **********************************************************************

            Population analysis using the SCF density.

 **********************************************************************

 Orbital symmetries:
 Alpha Orbitals:
       Occupied  (SGG) (SGG) (SGU) (SGG) (PIU) (SGU) (PIU) (SGG)
                 (SGU) (SGG) (SGU) (PIG) (PIU) (PIG) (PIU) (SGG)
                 (PIU) (SGU) (PIU) (SGG) (SGU) (?A) (?B) (?A) (?A)
                 (SGU) (?B) (PIU) (PIU) (?A) (?B)
       Virtual   (?B) (SGG) (PIU) (PIU) (?A) (SGU) (PIG) (PIG)
                 (?A) (?A) (?A) (PIU) (PIU) (SGU) (?B) (?B) (SGG)
                 (SGG) (SGU) (?B) (?C) (?C) (?B) (?C) (?D) (?D)
                 (?D) (PIU) (PIU) (DLTG) (DLTG) (PIG) (PIG) (PIU)
                 (PIU) (SGU) (SGG) (PIG) (PIG) (SGG) (SGU) (SGG)
                 (PIU) (PIU) (SGU) (DLTU) (DLTU) (DLTG) (DLTG)
                 (PIU) (PIU) (?A) (PIG) (PIG) (?A) (SGU) (?A) (?A)
                 (PIG) (PIG) (PIU) (PIU) (DLTU) (DLTU) (PHIU) (PHIG)
                 (PHIU) (PHIG) (DLTG) (DLTG) (PIG) (PIG) (SGG)
                 (PIU) (SGU) (PIU) (PIG) (PIG) (SGU) (SGG) (?E)
                 (?E) (DLTU) (DLTU) (?E) (?E) (SGG) (SGU) (PIU)
                 (PIU) (PIG) (PIG) (SGU) (SGG) (SGU) (SGG)
 Beta  Orbitals:
       Occupied  (SGG) (SGG) (SGU) (SGG) (PIU) (SGU) (PIU) (SGG)
                 (SGU) (SGG) (SGU) (PIG) (PIU) (PIG) (PIU) (SGG)
                 (PIU) (SGU) (PIU) (SGG) (SGU) (SGG) (SGU) (PIG)
                 (PIG) (PIU) (PIU)
       Virtual   (?A) (?A) (?A) (PIG) (PIU) (PIU) (PIG) (?A) (SGU)
                 (PIG) (PIG) (?A) (?A) (?A) (PIU) (PIU) (?A) (SGU)
                 (PIG) (PIG) (SGG) (SGG) (SGU) (?B) (?B) (PIG)
                 (PIG) (?B) (?C) (?C) (?C) (PIU) (PIU) (DLTG) (DLTG)
                 (PIU) (PIU) (PIG) (PIG) (SGU) (SGG) (PIG) (PIG)
                 (SGG) (SGU) (SGG) (PIU) (PIU) (SGU) (DLTU) (DLTU)
                 (DLTG) (DLTG) (PIU) (PIU) (SGG) (PIG) (PIG) (SGU)
                 (?D) (?E) (?D) (PIU) (?D) (PIU) (?E) (DLTU) (DLTU)
                 (PHIG) (PHIG) (PHIU) (PHIU) (?D) (?D) (?E) (PIU)
                 (PIU) (SGU) (?E) (?D) (?E) (?E) (SGU) (SGG) (DLTU)
                 (DLTU) (?F) (?F) (?F) (SGG) (?F) (SGU) (PIU) (PIU)
                 (PIG) (PIG) (SGU) (SGG) (SGU) (SGG)
 Unable to determine electronic state:  an orbital has unidentified symmetry.
 Alpha  occ. eigenvalues -- -217.48815-102.62641-102.62640 -25.33941 -21.61919
 Alpha  occ. eigenvalues --  -21.61598 -21.61281  -9.79005  -9.79005  -7.50869
 Alpha  occ. eigenvalues --   -7.50868  -7.50852  -7.50852  -7.50828  -7.50828
 Alpha  occ. eigenvalues --   -3.22912  -2.15563  -2.15293  -2.15233  -0.89769
 Alpha  occ. eigenvalues --   -0.88770  -0.50241  -0.47534  -0.45393  -0.45290
 Alpha  occ. eigenvalues --   -0.40767  -0.40132  -0.39295  -0.38624  -0.37772
 Alpha  occ. eigenvalues --   -0.35819
 Alpha virt. eigenvalues --   -0.10540  -0.02331   0.01216   0.01592   0.05711
 Alpha virt. eigenvalues --    0.06407   0.08251   0.08295   0.09027   0.09033
 Alpha virt. eigenvalues --    0.09177   0.10063   0.10545   0.12844   0.18712
 Alpha virt. eigenvalues --    0.19157   0.21369   0.24567   0.31199   0.42041
 Alpha virt. eigenvalues --    0.43109   0.43139   0.43361   0.44594   0.48644
 Alpha virt. eigenvalues --    0.48662   0.49250   0.49941   0.50024   0.53057
 Alpha virt. eigenvalues --    0.53057   0.54989   0.55150   0.55487   0.55549
 Alpha virt. eigenvalues --    0.66255   0.75071   0.79609   0.79618   0.83515
 Alpha virt. eigenvalues --    1.05414   1.24394   1.29799   1.31094   1.39441
 Alpha virt. eigenvalues --    1.78802   1.78805   1.81192   1.81196   1.81985
 Alpha virt. eigenvalues --    1.82158   1.83573   1.92807   1.92945   2.01450
 Alpha virt. eigenvalues --    2.02314   2.02388   2.02799   2.03363   2.05633
 Alpha virt. eigenvalues --    2.08575   2.08767   2.11075   2.11082   2.12658
 Alpha virt. eigenvalues --    2.12659   2.12660   2.12662   2.13674   2.13691
 Alpha virt. eigenvalues --    2.29739   2.30322   2.32036   2.32454   2.32590
 Alpha virt. eigenvalues --    2.32637   2.35248   2.35432   2.36679   2.62035
 Alpha virt. eigenvalues --    2.88104   2.88118   2.90505   2.90573   3.00504
 Alpha virt. eigenvalues --    3.01833   3.06167   3.39405  10.85250  10.85253
 Alpha virt. eigenvalues --   10.87085  10.87089  10.91723  11.09357  25.06115
 Alpha virt. eigenvalues --   25.41554
  Beta  occ. eigenvalues -- -217.48723-102.62676-102.62675 -25.27123 -21.56509
  Beta  occ. eigenvalues --  -21.56424 -21.53960  -9.79016  -9.79016  -7.50966
  Beta  occ. eigenvalues --   -7.50964  -7.50940  -7.50940  -7.50758  -7.50757
  Beta  occ. eigenvalues --   -3.06124  -1.96492  -1.96367  -1.91078  -0.89737
  Beta  occ. eigenvalues --   -0.88904  -0.44998  -0.40951  -0.39823  -0.39299
  Beta  occ. eigenvalues --   -0.39141  -0.38789
  Beta virt. eigenvalues --   -0.12145  -0.03748  -0.03746  -0.02494  -0.01331
  Beta virt. eigenvalues --   -0.00959   0.01093   0.01911   0.06407   0.08185
  Beta virt. eigenvalues --    0.08269   0.08367   0.08914   0.08966   0.09482
  Beta virt. eigenvalues --    0.09789   0.10767   0.12173   0.18451   0.18961
  Beta virt. eigenvalues --    0.21039   0.23167   0.31819   0.43969   0.43978
  Beta virt. eigenvalues --    0.44671   0.45657   0.46058   0.48693   0.48700
  Beta virt. eigenvalues --    0.49429   0.49767   0.50022   0.52274   0.52281
  Beta virt. eigenvalues --    0.54280   0.54580   0.55537   0.56008   0.66133
  Beta virt. eigenvalues --    0.73720   0.79396   0.79901   0.81383   1.05057
  Beta virt. eigenvalues --    1.23155   1.32676   1.35473   1.43339   1.78870
  Beta virt. eigenvalues --    1.78872   1.81184   1.81185   1.81943   1.82342
  Beta virt. eigenvalues --    1.87210   1.92744   1.93095   2.02238   2.04753
  Beta virt. eigenvalues --    2.07497   2.08856   2.09008   2.09061   2.09476
  Beta virt. eigenvalues --    2.09476   2.11101   2.11102   2.12660   2.12660
  Beta virt. eigenvalues --    2.12661   2.12661   2.14226   2.14239   2.31748
  Beta virt. eigenvalues --    2.32259   2.32649   2.32884   2.33329   2.34038
  Beta virt. eigenvalues --    2.35167   2.35629   2.40280   2.65745   3.00339
  Beta virt. eigenvalues --    3.00372   3.01238   3.01244   3.08574   3.09603
  Beta virt. eigenvalues --    3.11869   3.47224  10.85065  10.85417  10.86909
  Beta virt. eigenvalues --   10.87261  10.91673  11.09245  25.06049  25.41522
          Condensed to atoms (all electrons):
               1          2          3
     1  Cr  22.978598   0.211855   0.211855
     2  Cl   0.211855  17.095196  -0.008206
     3  Cl   0.211855  -0.008206  17.095196
          Atomic-Atomic Spin Densities.
               1          2          3
     1  Cr   4.279979  -0.083088  -0.083088
     2  Cl  -0.083088   0.022900   0.003286
     3  Cl  -0.083088   0.003286   0.022900
 Mulliken charges and spin densities:
               1          2
     1  Cr   0.597692   4.113804
     2  Cl  -0.298846  -0.056902
     3  Cl  -0.298846  -0.056902
 Sum of Mulliken charges =  -0.00000   4.00000
 Mulliken charges and spin densities with hydrogens summed into heavy atoms:
               1          2
     1  Cr   0.597692   4.113804
     2  Cl  -0.298846  -0.056902
     3  Cl  -0.298846  -0.056902
 Electronic spatial extent (au):  <R**2>=            697.0491
 Charge=             -0.0000 electrons
 Dipole moment (field-independent basis, Debye):
    X=             -0.0000    Y=             -0.0000    Z=              0.0000  Tot=              0.0000
 Quadrupole moment (field-independent basis, Debye-Ang):
   XX=            -39.2872   YY=            -40.0335   ZZ=            -54.2711
   XY=             -0.0000   XZ=              0.0000   YZ=              0.0000
 Traceless Quadrupole moment (field-independent basis, Debye-Ang):
   XX=              5.2434   YY=              4.4971   ZZ=             -9.7405
   XY=             -0.0000   XZ=              0.0000   YZ=              0.0000
 Octapole moment (field-independent basis, Debye-Ang**2):
  XXX=             -0.0000  YYY=             -0.0000  ZZZ=             -0.0000  XYY=             -0.0000
  XXY=             -0.0000  XXZ=              0.0000  XZZ=             -0.0000  YZZ=             -0.0000
  YYZ=             -0.0000  XYZ=              0.0000
 Hexadecapole moment (field-independent basis, Debye-Ang**3):
 XXXX=            -47.1998 YYYY=            -48.0849 ZZZZ=           -863.7642 XXXY=             -0.0000
 XXXZ=              0.0000 YYYX=             -0.0000 YYYZ=              0.0000 ZZZX=              0.0000
 ZZZY=              0.0000 XXYY=            -15.8814 XXZZ=           -148.8619 YYZZ=           -151.2470
 XXYZ=              0.0000 YYXZ=              0.0000 ZZXY=             -0.0000
 N-N= 2.290790820014D+02 E-N=-5.127289074097D+03  KE= 1.962885107445D+03
                          Isotropic Fermi Contact Couplings
        Atom                 a.u.       MegaHertz       Gauss      10(-4) cm-1
     1  Cr(53)             0.74378     -47.07471     -16.79743     -15.70243
     2  Cl(35)            -0.01096      -1.20177      -0.42882      -0.40087
     3  Cl(35)            -0.01096      -1.20177      -0.42882      -0.40087
 --------------------------------------------------------
       Center         ----  Spin Dipole Couplings  ----
                      3XX-RR        3YY-RR        3ZZ-RR
 --------------------------------------------------------
     1   Atom       -0.806318      1.745945     -0.939628
     2   Atom       -0.311431      0.430511     -0.119081
     3   Atom       -0.311431      0.430511     -0.119081
 --------------------------------------------------------
                        XY            XZ            YZ
 --------------------------------------------------------
     1   Atom        0.000000      0.000000      0.000000
     2   Atom        0.000000     -0.000000      0.000000
     3   Atom        0.000000      0.000000      0.000000
 --------------------------------------------------------


 ---------------------------------------------------------------------------------
              Anisotropic Spin Dipole Couplings in Principal Axis System
 ---------------------------------------------------------------------------------

       Atom             a.u.   MegaHertz   Gauss  10(-4) cm-1        Axes

              Baa    -0.9396    28.395    10.132     9.471  0.0000  0.0000  1.0000
     1 Cr(53) Bbb    -0.8063    24.366     8.694     8.128  1.0000 -0.0000 -0.0000
              Bcc     1.7459   -52.761   -18.826   -17.599 -0.0000  1.0000 -0.0000
 
              Baa    -0.3114   -16.300    -5.816    -5.437  1.0000  0.0000  0.0000
     2 Cl(35) Bbb    -0.1191    -6.232    -2.224    -2.079  0.0000  0.0000  1.0000
              Bcc     0.4305    22.532     8.040     7.516  0.0000  1.0000  0.0000
 
              Baa    -0.3114   -16.300    -5.816    -5.437  1.0000 -0.0000 -0.0000
     3 Cl(35) Bbb    -0.1191    -6.232    -2.224    -2.079  0.0000 -0.0000  1.0000
              Bcc     0.4305    22.532     8.040     7.516 -0.0000  1.0000 -0.0000
 

 ---------------------------------------------------------------------------------

 No NMR shielding tensors so no spin-rotation constants.
 Leave Link  601 at Fri Apr 16 22:57:13 2021, MaxMem=   104857600 cpu:             196.5 elap:               4.2
 (Enter /s/ls4/users/knvvv/bin/g16sse/l801.exe)
 DoSCS=F DFT=T ScalE2(SS,OS)=  1.000000  1.000000
 Range of M.O.s used for correlation:     1   127
 NBasis=   127 NAE=    31 NBE=    27 NFC=     0 NFV=     0
 NROrb=    127 NOA=    31 NOB=    27 NVA=    96 NVB=   100

 **** Warning!!: The largest alpha MO coefficient is  0.12843877D+02


 **** Warning!!: The largest beta MO coefficient is  0.12823219D+02

 Leave Link  801 at Fri Apr 16 22:57:13 2021, MaxMem=   104857600 cpu:               3.6 elap:               0.1
 (Enter /s/ls4/users/knvvv/bin/g16sse/l914.exe)
 UHF ground state
 Doing stability rather than CIS.
 Two-electron integrals replicated using symmetry.
 MDV=   104857600 DFT=T DoStab=T Mixed=T DoRPA=F DoScal=F NonHer=F
 Making orbital integer symmetry assigments:
 Orbital symmetries:
 Alpha Orbitals:
       Occupied  (SGG) (SGG) (SGU) (SGG) (PIU) (SGU) (PIU) (SGG)
                 (SGU) (SGG) (SGU) (PIG) (PIU) (PIG) (PIU) (SGG)
                 (PIU) (SGU) (PIU) (SGG) (SGU) (?A) (?B) (?A) (?A)
                 (SGU) (?B) (PIU) (PIU) (?A) (?B)
       Virtual   (?B) (SGG) (PIU) (PIU) (?A) (SGU) (PIG) (PIG)
                 (?A) (?A) (?A) (PIU) (PIU) (SGU) (?B) (?B) (SGG)
                 (SGG) (SGU) (?B) (?C) (?C) (?B) (?C) (?D) (?D)
                 (?D) (PIU) (PIU) (DLTG) (DLTG) (PIG) (PIG) (PIU)
                 (PIU) (SGU) (SGG) (PIG) (PIG) (SGG) (SGU) (SGG)
                 (PIU) (PIU) (SGU) (DLTU) (DLTU) (DLTG) (DLTG)
                 (PIU) (PIU) (?A) (PIG) (PIG) (?A) (SGU) (?A) (?A)
                 (PIG) (PIG) (PIU) (PIU) (DLTU) (DLTU) (PHIU) (PHIG)
                 (PHIU) (PHIG) (DLTG) (DLTG) (PIG) (PIG) (SGG)
                 (PIU) (SGU) (PIU) (PIG) (PIG) (SGU) (SGG) (?E)
                 (?E) (DLTU) (DLTU) (?E) (?E) (SGG) (SGU) (PIU)
                 (PIU) (PIG) (PIG) (SGU) (SGG) (SGU) (SGG)
 Beta  Orbitals:
       Occupied  (SGG) (SGG) (SGU) (SGG) (PIU) (SGU) (PIU) (SGG)
                 (SGU) (SGG) (SGU) (PIG) (PIU) (PIG) (PIU) (SGG)
                 (PIU) (SGU) (PIU) (SGG) (SGU) (SGG) (SGU) (PIG)
                 (PIG) (PIU) (PIU)
       Virtual   (?A) (?A) (?A) (PIG) (PIU) (PIU) (PIG) (?A) (SGU)
                 (PIG) (PIG) (?A) (?A) (?A) (PIU) (PIU) (?A) (SGU)
                 (PIG) (PIG) (SGG) (SGG) (SGU) (?B) (?B) (PIG)
                 (PIG) (?B) (?C) (?C) (?C) (PIU) (PIU) (DLTG) (DLTG)
                 (PIU) (PIU) (PIG) (PIG) (SGU) (SGG) (PIG) (PIG)
                 (SGG) (SGU) (SGG) (PIU) (PIU) (SGU) (DLTU) (DLTU)
                 (DLTG) (DLTG) (PIU) (PIU) (SGG) (PIG) (PIG) (SGU)
                 (?D) (?E) (?D) (PIU) (?D) (PIU) (?E) (DLTU) (DLTU)
                 (PHIG) (PHIG) (PHIU) (PHIU) (?D) (?D) (?E) (PIU)
                 (PIU) (SGU) (?E) (?D) (?E) (?E) (SGU) (SGG) (DLTU)
                 (DLTU) (?F) (?F) (?F) (SGG) (?F) (SGU) (PIU) (PIU)
                 (PIG) (PIG) (SGU) (SGG) (SGU) (SGG)
    24 initial guesses have been made.
 Convergence on wavefunction:    0.001000000000000
 Davidson Disk Diagonalization:  ConvIn= 1.00D-03 SkipCon=T Conv= 1.00D-03.
 Max sub-space:  2000 roots to seek:    24 dimension of matrix:         5676
 Iteration     1 Dimension    24 NMult     0 NNew     24
 Estimated number of processors is:   45
 CISAX will form     1 AO SS matrices at one time.
 NMat=     1 NSing=     1 JSym2X= 2.
 FoFJK:  IHMeth= 1 ICntrl=       0 DoSepK=F KAlg= 0 I1Cent=           0 FoldK=F
 IRaf= 930000000 NMat=       1 IRICut=       1 DoRegI=T DoRafI=F ISym2E= 2 IDoP0=0 IntGTp=1.
 FoFCou: FMM=F IPFlag=           0 FMFlag=      100000 FMFlg1=           0
         NFxFlg=           0 DoJE=F BraDBF=F KetDBF=F FulRan=T
         wScrn=  0.000000 ICntrl=         0 IOpCl=  1 I1Cent=           0 NGrid=           0
         NMat0=    1 NMatS0=      1 NMatT0=    0 NMatD0=    1 NMtDS0=    0 NMtDT0=    0
 Integrals replicated using symmetry in FoFCou.
 CoulSu:  requested number of processors reduced to:  42 ShMem   1 Linda.
 NMat=     1 NSing=     1 JSym2X= 2.
 CoulSu:  requested number of processors reduced to:  42 ShMem   1 Linda.
 NMat=     1 NSing=     1 JSym2X= 2.
 CoulSu:  requested number of processors reduced to:  42 ShMem   1 Linda.
 NMat=     1 NSing=     1 JSym2X= 2.
 CoulSu:  requested number of processors reduced to:  42 ShMem   1 Linda.
 NMat=     1 NSing=     1 JSym2X= 2.
 CoulSu:  requested number of processors reduced to:  42 ShMem   1 Linda.
 NMat=     1 NSing=     1 JSym2X= 2.
 CoulSu:  requested number of processors reduced to:  42 ShMem   1 Linda.
 NMat=     1 NSing=     1 JSym2X= 2.
 CoulSu:  requested number of processors reduced to:  42 ShMem   1 Linda.
 NMat=     1 NSing=     1 JSym2X= 2.
 CoulSu:  requested number of processors reduced to:  42 ShMem   1 Linda.
 NMat=     1 NSing=     1 JSym2X= 2.
 CoulSu:  requested number of processors reduced to:  42 ShMem   1 Linda.
 NMat=     1 NSing=     1 JSym2X= 2.
 CoulSu:  requested number of processors reduced to:  42 ShMem   1 Linda.
 NMat=     1 NSing=     1 JSym2X= 2.
 CoulSu:  requested number of processors reduced to:  42 ShMem   1 Linda.
 NMat=     1 NSing=     1 JSym2X= 2.
 CoulSu:  requested number of processors reduced to:  42 ShMem   1 Linda.
 NMat=     1 NSing=     1 JSym2X= 2.
 CoulSu:  requested number of processors reduced to:  42 ShMem   1 Linda.
 NMat=     1 NSing=     1 JSym2X= 2.
 CoulSu:  requested number of processors reduced to:  42 ShMem   1 Linda.
 NMat=     1 NSing=     1 JSym2X= 2.
 CoulSu:  requested number of processors reduced to:  42 ShMem   1 Linda.
 NMat=     1 NSing=     1 JSym2X= 2.
 CoulSu:  requested number of processors reduced to:  42 ShMem   1 Linda.
 NMat=     1 NSing=     1 JSym2X= 2.
 CoulSu:  requested number of processors reduced to:  42 ShMem   1 Linda.
 NMat=     1 NSing=     1 JSym2X= 2.
 CoulSu:  requested number of processors reduced to:  42 ShMem   1 Linda.
 NMat=     1 NSing=     1 JSym2X= 2.
 CoulSu:  requested number of processors reduced to:  42 ShMem   1 Linda.
 NMat=     1 NSing=     1 JSym2X= 2.
 CoulSu:  requested number of processors reduced to:  42 ShMem   1 Linda.
 NMat=     1 NSing=     1 JSym2X= 2.
 CoulSu:  requested number of processors reduced to:  42 ShMem   1 Linda.
 NMat=     1 NSing=     1 JSym2X= 2.
 CoulSu:  requested number of processors reduced to:  42 ShMem   1 Linda.
 NMat=     1 NSing=     1 JSym2X= 2.
 CoulSu:  requested number of processors reduced to:  42 ShMem   1 Linda.
 NMat=     1 NSing=     1 JSym2X= 2.
 CoulSu:  requested number of processors reduced to:  42 ShMem   1 Linda.
 New state      1 was old state      5
 Excitation Energies [eV] at current iteration:
 Root      1 :     1.125468269893383
 Root      2 :     1.333945634188672
 Root      3 :     2.302360593524053
 Root      4 :     2.347178099420046
 Root      5 :     4.374040782624816
 Root      6 :     4.579208686201572
 Root      7 :     4.631556579496232
 Root      8 :     4.714649748935965
 Root      9 :     4.800185523416334
 Root     10 :     5.211495378056290
 Root     11 :     5.314607675586545
 Root     12 :     5.497194094945093
 Root     13 :     6.079617740494344
 Root     14 :     6.359756528565652
 Root     15 :     6.663741892510570
 Root     16 :     6.669706132141729
 Root     17 :     6.816154203358652
 Root     18 :     6.849345515090056
 Root     19 :     6.870674680826853
 Root     20 :     7.550176712447265
 Root     21 :     7.550766837629106
 Root     22 :     7.668988975858599
 Root     23 :     8.122671576589516
 Root     24 :     8.351371538998269
 Iteration     2 Dimension    48 NMult    24 NNew     24
 Estimated number of processors is:   45
 CISAX will form     1 AO SS matrices at one time.
 NMat=     1 NSing=     1 JSym2X= 2.
 CoulSu:  requested number of processors reduced to:  42 ShMem   1 Linda.
 NMat=     1 NSing=     1 JSym2X= 2.
 CoulSu:  requested number of processors reduced to:  42 ShMem   1 Linda.
 NMat=     1 NSing=     1 JSym2X= 2.
 CoulSu:  requested number of processors reduced to:  42 ShMem   1 Linda.
 NMat=     1 NSing=     1 JSym2X= 2.
 CoulSu:  requested number of processors reduced to:  42 ShMem   1 Linda.
 NMat=     1 NSing=     1 JSym2X= 2.
 CoulSu:  requested number of processors reduced to:  42 ShMem   1 Linda.
 NMat=     1 NSing=     1 JSym2X= 2.
 CoulSu:  requested number of processors reduced to:  42 ShMem   1 Linda.
 NMat=     1 NSing=     1 JSym2X= 2.
 CoulSu:  requested number of processors reduced to:  42 ShMem   1 Linda.
 NMat=     1 NSing=     1 JSym2X= 2.
 CoulSu:  requested number of processors reduced to:  42 ShMem   1 Linda.
 NMat=     1 NSing=     1 JSym2X= 2.
 CoulSu:  requested number of processors reduced to:  42 ShMem   1 Linda.
 NMat=     1 NSing=     1 JSym2X= 2.
 CoulSu:  requested number of processors reduced to:  42 ShMem   1 Linda.
 NMat=     1 NSing=     1 JSym2X= 2.
 CoulSu:  requested number of processors reduced to:  42 ShMem   1 Linda.
 NMat=     1 NSing=     1 JSym2X= 2.
 CoulSu:  requested number of processors reduced to:  42 ShMem   1 Linda.
 NMat=     1 NSing=     1 JSym2X= 2.
 CoulSu:  requested number of processors reduced to:  42 ShMem   1 Linda.
 NMat=     1 NSing=     1 JSym2X= 2.
 CoulSu:  requested number of processors reduced to:  42 ShMem   1 Linda.
 NMat=     1 NSing=     1 JSym2X= 2.
 CoulSu:  requested number of processors reduced to:  42 ShMem   1 Linda.
 NMat=     1 NSing=     1 JSym2X= 2.
 CoulSu:  requested number of processors reduced to:  42 ShMem   1 Linda.
 NMat=     1 NSing=     1 JSym2X= 2.
 CoulSu:  requested number of processors reduced to:  42 ShMem   1 Linda.
 NMat=     1 NSing=     1 JSym2X= 2.
 CoulSu:  requested number of processors reduced to:  42 ShMem   1 Linda.
 NMat=     1 NSing=     1 JSym2X= 2.
 CoulSu:  requested number of processors reduced to:  42 ShMem   1 Linda.
 NMat=     1 NSing=     1 JSym2X= 2.
 CoulSu:  requested number of processors reduced to:  42 ShMem   1 Linda.
 NMat=     1 NSing=     1 JSym2X= 2.
 CoulSu:  requested number of processors reduced to:  42 ShMem   1 Linda.
 NMat=     1 NSing=     1 JSym2X= 2.
 CoulSu:  requested number of processors reduced to:  42 ShMem   1 Linda.
 NMat=     1 NSing=     1 JSym2X= 2.
 CoulSu:  requested number of processors reduced to:  42 ShMem   1 Linda.
 NMat=     1 NSing=     1 JSym2X= 2.
 CoulSu:  requested number of processors reduced to:  42 ShMem   1 Linda.
 New state      1 was old state      3
 Root      1 not converged, maximum delta is    0.605596956769769
 Excitation Energies [eV] at current iteration:
 Root      1 :     0.147867163708033   Change is   -2.154493429816021
 Root      2 :     0.215323411877475   Change is   -0.910144858015908
 Root      3 :     0.734344628380763   Change is   -0.599601005807908
 Root      4 :     0.909350207755551   Change is   -1.437827891664495
 Root      5 :     4.182059469928666   Change is   -1.897558270565677
 Root      6 :     4.208101481072293   Change is   -0.506548267863673
 Root      7 :     4.260197076934362   Change is   -0.113843705690453
 Root      8 :     4.407059456864372   Change is   -0.172149229337199
 Root      9 :     4.547639116358819   Change is   -0.083917463137413
 Root     10 :     4.694255108074906   Change is   -0.105930415341428
 Root     11 :     4.857795336571308   Change is   -0.456812339015238
 Root     12 :     4.987526701856560   Change is   -0.223968676199730
 Root     13 :     5.216010022945441   Change is   -0.281184071999652
 Root     14 :     5.372271387407681
 Root     15 :     5.646060929131811   Change is   -0.713695599433840
 Root     16 :     6.004137446786541   Change is   -0.845208068303516
 Root     17 :     6.578246501449080   Change is   -0.085495391061490
 Root     18 :     6.590503348499331   Change is   -0.079202783642399
 Root     19 :     6.678442453914315   Change is   -0.137711749444336
 Root     20 :     6.728876321075156   Change is   -0.141798359751697
 Root     21 :     6.781642630490013   Change is   -0.887346345368586
 Root     22 :     7.062670191351929   Change is   -1.060001385237588
 Root     23 :     7.237112488421077   Change is   -1.114259050577192
 Root     24 :     7.301377124557118   Change is   -0.249389713071988
 Iteration     3 Dimension    51 NMult    48 NNew      3
 Estimated number of processors is:   45
 CISAX will form     1 AO SS matrices at one time.
 NMat=     1 NSing=     1 JSym2X= 2.
 CoulSu:  requested number of processors reduced to:  42 ShMem   1 Linda.
 NMat=     1 NSing=     1 JSym2X= 2.
 CoulSu:  requested number of processors reduced to:  42 ShMem   1 Linda.
 NMat=     1 NSing=     1 JSym2X= 2.
 CoulSu:  requested number of processors reduced to:  42 ShMem   1 Linda.
 Root      1 not converged, maximum delta is    0.054262628740172
 Excitation Energies [eV] at current iteration:
 Root      1 :     0.007135314699740   Change is   -0.140731849008293
 Root      2 :     0.078499646448342   Change is   -0.136823765429133
 Root      3 :     0.727034958534871   Change is   -0.007309669845892
 Iteration     4 Dimension    54 NMult    51 NNew      3
 Estimated number of processors is:   45
 CISAX will form     1 AO SS matrices at one time.
 NMat=     1 NSing=     1 JSym2X= 2.
 CoulSu:  requested number of processors reduced to:  42 ShMem   1 Linda.
 NMat=     1 NSing=     1 JSym2X= 2.
 CoulSu:  requested number of processors reduced to:  42 ShMem   1 Linda.
 NMat=     1 NSing=     1 JSym2X= 2.
 CoulSu:  requested number of processors reduced to:  42 ShMem   1 Linda.
 Root      1 not converged, maximum delta is    0.013046143457556
 Excitation Energies [eV] at current iteration:
 Root      1 :     0.000947565099301   Change is   -0.006187749600439
 Root      2 :     0.068512699999108   Change is   -0.009986946449234
 Root      3 :     0.726981557324935   Change is   -0.000053401209936
 Iteration     5 Dimension    57 NMult    54 NNew      3
 Estimated number of processors is:   45
 CISAX will form     1 AO SS matrices at one time.
 NMat=     1 NSing=     1 JSym2X= 2.
 CoulSu:  requested number of processors reduced to:  42 ShMem   1 Linda.
 NMat=     1 NSing=     1 JSym2X= 2.
 CoulSu:  requested number of processors reduced to:  42 ShMem   1 Linda.
 NMat=     1 NSing=     1 JSym2X= 2.
 CoulSu:  requested number of processors reduced to:  42 ShMem   1 Linda.
 Root      1 not converged, maximum delta is    0.001564128885127
 Excitation Energies [eV] at current iteration:
 Root      1 :     0.000794764193117   Change is   -0.000152800906185
 Root      2 :     0.068123282278965   Change is   -0.000389417720143
 Root      3 :     0.726979990743164   Change is   -0.000001566581771
 Iteration     6 Dimension    60 NMult    57 NNew      3
 Estimated number of processors is:   45
 CISAX will form     1 AO SS matrices at one time.
 NMat=     1 NSing=     1 JSym2X= 2.
 CoulSu:  requested number of processors reduced to:  42 ShMem   1 Linda.
 NMat=     1 NSing=     1 JSym2X= 2.
 CoulSu:  requested number of processors reduced to:  42 ShMem   1 Linda.
 NMat=     1 NSing=     1 JSym2X= 2.
 CoulSu:  requested number of processors reduced to:  42 ShMem   1 Linda.
 Root      1 has converged.
 Excitation Energies [eV] at current iteration:
 Root      1 :     0.000790012437753   Change is   -0.000004751755363
 Root      2 :     0.068111613952644   Change is   -0.000011668326321
 Root      3 :     0.726979935671047   Change is   -0.000000055072117
 Convergence achieved on expansion vectors.
 ***********************************************************************
 Stability analysis using <AA,BB:AA,BB> singles matrix:
 ***********************************************************************
 1PDM for each excited state written to RWF  633
 Ground to excited state transition densities written to RWF  633

 Eigenvectors of the stability matrix:
 
 Excited state symmetry could not be determined.
 Eigenvector   1:  5.009-?Sym  Eigenvalue= 0.0000290  <S**2>=6.023
     23A -> 32A        0.66187
     31A -> 32A        0.72981
 The wavefunction is stable under the perturbations considered.
 Leave Link  914 at Fri Apr 16 22:58:53 2021, MaxMem=   104857600 cpu:            4465.7 elap:             100.0
 (Enter /s/ls4/users/knvvv/bin/g16sse/l508.exe)
 The wavefunction is already stable.
 Leave Link  508 at Fri Apr 16 22:58:53 2021, MaxMem=   104857600 cpu:               2.2 elap:               0.1
 (Enter /s/ls4/users/knvvv/bin/g16sse/l601.exe)
 Copying SCF densities to generalized density rwf, IOpCl= 1 IROHF=0.

 **********************************************************************

            Population analysis using the SCF density.

 **********************************************************************

 Orbital symmetries:
 Alpha Orbitals:
       Occupied  (SGG) (SGG) (SGU) (SGG) (PIU) (SGU) (PIU) (SGG)
                 (SGU) (SGG) (SGU) (PIG) (PIU) (PIG) (PIU) (SGG)
                 (PIU) (SGU) (PIU) (SGG) (SGU) (?A) (?B) (?A) (?A)
                 (SGU) (?B) (PIU) (PIU) (?A) (?B)
       Virtual   (?B) (SGG) (PIU) (PIU) (?A) (SGU) (PIG) (PIG)
                 (?A) (?A) (?A) (PIU) (PIU) (SGU) (?B) (?B) (SGG)
                 (SGG) (SGU) (?B) (?C) (?C) (?B) (?C) (?D) (?D)
                 (?D) (PIU) (PIU) (DLTG) (DLTG) (PIG) (PIG) (PIU)
                 (PIU) (SGU) (SGG) (PIG) (PIG) (SGG) (SGU) (SGG)
                 (PIU) (PIU) (SGU) (DLTU) (DLTU) (DLTG) (DLTG)
                 (PIU) (PIU) (?A) (PIG) (PIG) (?A) (SGU) (?A) (?A)
                 (PIG) (PIG) (PIU) (PIU) (DLTU) (DLTU) (PHIU) (PHIG)
                 (PHIU) (PHIG) (DLTG) (DLTG) (PIG) (PIG) (SGG)
                 (PIU) (SGU) (PIU) (PIG) (PIG) (SGU) (SGG) (?E)
                 (?E) (DLTU) (DLTU) (?E) (?E) (SGG) (SGU) (PIU)
                 (PIU) (PIG) (PIG) (SGU) (SGG) (SGU) (SGG)
 Beta  Orbitals:
       Occupied  (SGG) (SGG) (SGU) (SGG) (PIU) (SGU) (PIU) (SGG)
                 (SGU) (SGG) (SGU) (PIG) (PIU) (PIG) (PIU) (SGG)
                 (PIU) (SGU) (PIU) (SGG) (SGU) (SGG) (SGU) (PIG)
                 (PIG) (PIU) (PIU)
       Virtual   (?A) (?A) (?A) (PIG) (PIU) (PIU) (PIG) (?A) (SGU)
                 (PIG) (PIG) (?A) (?A) (?A) (PIU) (PIU) (?A) (SGU)
                 (PIG) (PIG) (SGG) (SGG) (SGU) (?B) (?B) (PIG)
                 (PIG) (?B) (?C) (?C) (?C) (PIU) (PIU) (DLTG) (DLTG)
                 (PIU) (PIU) (PIG) (PIG) (SGU) (SGG) (PIG) (PIG)
                 (SGG) (SGU) (SGG) (PIU) (PIU) (SGU) (DLTU) (DLTU)
                 (DLTG) (DLTG) (PIU) (PIU) (SGG) (PIG) (PIG) (SGU)
                 (?D) (?E) (?D) (PIU) (?D) (PIU) (?E) (DLTU) (DLTU)
                 (PHIG) (PHIG) (PHIU) (PHIU) (?D) (?D) (?E) (PIU)
                 (PIU) (SGU) (?E) (?D) (?E) (?E) (SGU) (SGG) (DLTU)
                 (DLTU) (?F) (?F) (?F) (SGG) (?F) (SGU) (PIU) (PIU)
                 (PIG) (PIG) (SGU) (SGG) (SGU) (SGG)
 Unable to determine electronic state:  an orbital has unidentified symmetry.
 Alpha  occ. eigenvalues -- -217.48815-102.62641-102.62640 -25.33941 -21.61919
 Alpha  occ. eigenvalues --  -21.61598 -21.61281  -9.79005  -9.79005  -7.50869
 Alpha  occ. eigenvalues --   -7.50868  -7.50852  -7.50852  -7.50828  -7.50828
 Alpha  occ. eigenvalues --   -3.22912  -2.15563  -2.15293  -2.15233  -0.89769
 Alpha  occ. eigenvalues --   -0.88770  -0.50241  -0.47534  -0.45393  -0.45290
 Alpha  occ. eigenvalues --   -0.40767  -0.40132  -0.39295  -0.38624  -0.37772
 Alpha  occ. eigenvalues --   -0.35819
 Alpha virt. eigenvalues --   -0.10540  -0.02331   0.01216   0.01592   0.05711
 Alpha virt. eigenvalues --    0.06407   0.08251   0.08295   0.09027   0.09033
 Alpha virt. eigenvalues --    0.09177   0.10063   0.10545   0.12844   0.18712
 Alpha virt. eigenvalues --    0.19157   0.21369   0.24567   0.31199   0.42041
 Alpha virt. eigenvalues --    0.43109   0.43139   0.43361   0.44594   0.48644
 Alpha virt. eigenvalues --    0.48662   0.49250   0.49941   0.50024   0.53057
 Alpha virt. eigenvalues --    0.53057   0.54989   0.55150   0.55487   0.55549
 Alpha virt. eigenvalues --    0.66255   0.75071   0.79609   0.79618   0.83515
 Alpha virt. eigenvalues --    1.05414   1.24394   1.29799   1.31094   1.39441
 Alpha virt. eigenvalues --    1.78802   1.78805   1.81192   1.81196   1.81985
 Alpha virt. eigenvalues --    1.82158   1.83573   1.92807   1.92945   2.01450
 Alpha virt. eigenvalues --    2.02314   2.02388   2.02799   2.03363   2.05633
 Alpha virt. eigenvalues --    2.08575   2.08767   2.11075   2.11082   2.12658
 Alpha virt. eigenvalues --    2.12659   2.12660   2.12662   2.13674   2.13691
 Alpha virt. eigenvalues --    2.29739   2.30322   2.32036   2.32454   2.32590
 Alpha virt. eigenvalues --    2.32637   2.35248   2.35432   2.36679   2.62035
 Alpha virt. eigenvalues --    2.88104   2.88118   2.90505   2.90573   3.00504
 Alpha virt. eigenvalues --    3.01833   3.06167   3.39405  10.85250  10.85253
 Alpha virt. eigenvalues --   10.87085  10.87089  10.91723  11.09357  25.06115
 Alpha virt. eigenvalues --   25.41554
  Beta  occ. eigenvalues -- -217.48723-102.62676-102.62675 -25.27123 -21.56509
  Beta  occ. eigenvalues --  -21.56424 -21.53960  -9.79016  -9.79016  -7.50966
  Beta  occ. eigenvalues --   -7.50964  -7.50940  -7.50940  -7.50758  -7.50757
  Beta  occ. eigenvalues --   -3.06124  -1.96492  -1.96367  -1.91078  -0.89737
  Beta  occ. eigenvalues --   -0.88904  -0.44998  -0.40951  -0.39823  -0.39299
  Beta  occ. eigenvalues --   -0.39141  -0.38789
  Beta virt. eigenvalues --   -0.12145  -0.03748  -0.03746  -0.02494  -0.01331
  Beta virt. eigenvalues --   -0.00959   0.01093   0.01911   0.06407   0.08185
  Beta virt. eigenvalues --    0.08269   0.08367   0.08914   0.08966   0.09482
  Beta virt. eigenvalues --    0.09789   0.10767   0.12173   0.18451   0.18961
  Beta virt. eigenvalues --    0.21039   0.23167   0.31819   0.43969   0.43978
  Beta virt. eigenvalues --    0.44671   0.45657   0.46058   0.48693   0.48700
  Beta virt. eigenvalues --    0.49429   0.49767   0.50022   0.52274   0.52281
  Beta virt. eigenvalues --    0.54280   0.54580   0.55537   0.56008   0.66133
  Beta virt. eigenvalues --    0.73720   0.79396   0.79901   0.81383   1.05057
  Beta virt. eigenvalues --    1.23155   1.32676   1.35473   1.43339   1.78870
  Beta virt. eigenvalues --    1.78872   1.81184   1.81185   1.81943   1.82342
  Beta virt. eigenvalues --    1.87210   1.92744   1.93095   2.02238   2.04753
  Beta virt. eigenvalues --    2.07497   2.08856   2.09008   2.09061   2.09476
  Beta virt. eigenvalues --    2.09476   2.11101   2.11102   2.12660   2.12660
  Beta virt. eigenvalues --    2.12661   2.12661   2.14226   2.14239   2.31748
  Beta virt. eigenvalues --    2.32259   2.32649   2.32884   2.33329   2.34038
  Beta virt. eigenvalues --    2.35167   2.35629   2.40280   2.65745   3.00339
  Beta virt. eigenvalues --    3.00372   3.01238   3.01244   3.08574   3.09603
  Beta virt. eigenvalues --    3.11869   3.47224  10.85065  10.85417  10.86909
  Beta virt. eigenvalues --   10.87261  10.91673  11.09245  25.06049  25.41522
          Condensed to atoms (all electrons):
               1          2          3
     1  Cr  22.978598   0.211855   0.211855
     2  Cl   0.211855  17.095196  -0.008206
     3  Cl   0.211855  -0.008206  17.095196
          Atomic-Atomic Spin Densities.
               1          2          3
     1  Cr   4.279979  -0.083088  -0.083088
     2  Cl  -0.083088   0.022900   0.003286
     3  Cl  -0.083088   0.003286   0.022900
 Mulliken charges and spin densities:
               1          2
     1  Cr   0.597692   4.113804
     2  Cl  -0.298846  -0.056902
     3  Cl  -0.298846  -0.056902
 Sum of Mulliken charges =  -0.00000   4.00000
 Mulliken charges and spin densities with hydrogens summed into heavy atoms:
               1          2
     1  Cr   0.597692   4.113804
     2  Cl  -0.298846  -0.056902
     3  Cl  -0.298846  -0.056902
 Electronic spatial extent (au):  <R**2>=            697.0491
 Charge=             -0.0000 electrons
 Dipole moment (field-independent basis, Debye):
    X=             -0.0000    Y=             -0.0000    Z=              0.0000  Tot=              0.0000
 Quadrupole moment (field-independent basis, Debye-Ang):
   XX=            -39.2872   YY=            -40.0335   ZZ=            -54.2711
   XY=             -0.0000   XZ=              0.0000   YZ=              0.0000
 Traceless Quadrupole moment (field-independent basis, Debye-Ang):
   XX=              5.2434   YY=              4.4971   ZZ=             -9.7405
   XY=             -0.0000   XZ=              0.0000   YZ=              0.0000
 Octapole moment (field-independent basis, Debye-Ang**2):
  XXX=             -0.0000  YYY=             -0.0000  ZZZ=             -0.0000  XYY=             -0.0000
  XXY=             -0.0000  XXZ=              0.0000  XZZ=             -0.0000  YZZ=             -0.0000
  YYZ=             -0.0000  XYZ=              0.0000
 Hexadecapole moment (field-independent basis, Debye-Ang**3):
 XXXX=            -47.1998 YYYY=            -48.0849 ZZZZ=           -863.7642 XXXY=             -0.0000
 XXXZ=              0.0000 YYYX=             -0.0000 YYYZ=              0.0000 ZZZX=              0.0000
 ZZZY=              0.0000 XXYY=            -15.8814 XXZZ=           -148.8619 YYZZ=           -151.2470
 XXYZ=              0.0000 YYXZ=              0.0000 ZZXY=             -0.0000
 N-N= 2.290790820014D+02 E-N=-5.127289074097D+03  KE= 1.962885107445D+03
                          Isotropic Fermi Contact Couplings
        Atom                 a.u.       MegaHertz       Gauss      10(-4) cm-1
     1  Cr(53)             0.74378     -47.07471     -16.79743     -15.70243
     2  Cl(35)            -0.01096      -1.20177      -0.42882      -0.40087
     3  Cl(35)            -0.01096      -1.20177      -0.42882      -0.40087
 --------------------------------------------------------
       Center         ----  Spin Dipole Couplings  ----
                      3XX-RR        3YY-RR        3ZZ-RR
 --------------------------------------------------------
     1   Atom       -0.806318      1.745945     -0.939628
     2   Atom       -0.311431      0.430511     -0.119081
     3   Atom       -0.311431      0.430511     -0.119081
 --------------------------------------------------------
                        XY            XZ            YZ
 --------------------------------------------------------
     1   Atom        0.000000      0.000000      0.000000
     2   Atom        0.000000     -0.000000      0.000000
     3   Atom        0.000000      0.000000      0.000000
 --------------------------------------------------------


 ---------------------------------------------------------------------------------
              Anisotropic Spin Dipole Couplings in Principal Axis System
 ---------------------------------------------------------------------------------

       Atom             a.u.   MegaHertz   Gauss  10(-4) cm-1        Axes

              Baa    -0.9396    28.395    10.132     9.471  0.0000  0.0000  1.0000
     1 Cr(53) Bbb    -0.8063    24.366     8.694     8.128  1.0000 -0.0000 -0.0000
              Bcc     1.7459   -52.761   -18.826   -17.599 -0.0000  1.0000 -0.0000
 
              Baa    -0.3114   -16.300    -5.816    -5.437  1.0000  0.0000  0.0000
     2 Cl(35) Bbb    -0.1191    -6.232    -2.224    -2.079  0.0000  0.0000  1.0000
              Bcc     0.4305    22.532     8.040     7.516  0.0000  1.0000  0.0000
 
              Baa    -0.3114   -16.300    -5.816    -5.437  1.0000 -0.0000 -0.0000
     3 Cl(35) Bbb    -0.1191    -6.232    -2.224    -2.079  0.0000 -0.0000  1.0000
              Bcc     0.4305    22.532     8.040     7.516 -0.0000  1.0000 -0.0000
 

 ---------------------------------------------------------------------------------

 No NMR shielding tensors so no spin-rotation constants.
 Leave Link  601 at Fri Apr 16 22:58:58 2021, MaxMem=   104857600 cpu:             219.7 elap:               4.7
 (Enter /s/ls4/users/knvvv/bin/g16sse/l9999.exe)

 Test job not archived.
 1\1\GINC-N150\Stability\UM062X\Gen\Cl2Cr1(5)\KNVVV\16-Apr-2021\0\\#P M
 062X/GEN Integral=UltraFineGrid SCF=NoSymm Stable=(RExt, Opt) IOp(1/33
 =1)\\Database calculations.\\0,5\Cr,0,0.,0.,0.\Cl,0,0.,0.,2.218774\Cl,
 0,0.,0.,-2.218774\\Version=ES64L-G16RevA.03\HF=-1964.9382406\S2=6.0186
 99\S2-1=0.\S2A=6.000083\RMSD=2.763e-09\Dipole=0.,0.,0.\Quadrupole=3.89
 83153,3.3435074,-7.2418228,0.,0.,0.\PG=D*H [O(Cr1),C*(Cl1.Cl1)]\\@


 MUD THROWN IS GROUND LOST -- FROM A TEA BAG
 Job cpu time:       0 days  3 hours 37 minutes 40.1 seconds.
 Elapsed time:       0 days  0 hours  4 minutes 43.2 seconds.
 File lengths (MBytes):  RWF=    159 Int=      0 D2E=      0 Chk=      5 Scr=      1
 Normal termination of Gaussian 16 at Fri Apr 16 22:58:58 2021.
