 Entering Gaussian System, Link 0=/s/ls4/users/knvvv/bin/g16sse/g16
 Input=data/database/M062X--def2-QZVPPD--242_sih4_W4-11.gjf
 Output=data/database/M062X--def2-QZVPPD--242_sih4_W4-11.log
 Initial command:
 /s/ls4/users/knvvv/bin/g16sse/l1.exe "/s/ls4/users/knvvv/bin/scratch/Gau-38793.inp" -scrdir="/s/ls4/users/knvvv/bin/scratch/"
 Entering Link 1 = /s/ls4/users/knvvv/bin/g16sse/l1.exe PID=     38794.
  
 Copyright (c) 1988,1990,1992,1993,1995,1998,2003,2009,2016,
            Gaussian, Inc.  All Rights Reserved.
  
 This is part of the Gaussian(R) 16 program.  It is based on
 the Gaussian(R) 09 system (copyright 2009, Gaussian, Inc.),
 the Gaussian(R) 03 system (copyright 2003, Gaussian, Inc.),
 the Gaussian(R) 98 system (copyright 1998, Gaussian, Inc.),
 the Gaussian(R) 94 system (copyright 1995, Gaussian, Inc.),
 the Gaussian 92(TM) system (copyright 1992, Gaussian, Inc.),
 the Gaussian 90(TM) system (copyright 1990, Gaussian, Inc.),
 the Gaussian 88(TM) system (copyright 1988, Gaussian, Inc.),
 the Gaussian 86(TM) system (copyright 1986, Carnegie Mellon
 University), and the Gaussian 82(TM) system (copyright 1983,
 Carnegie Mellon University). Gaussian is a federally registered
 trademark of Gaussian, Inc.
  
 This software contains proprietary and confidential information,
 including trade secrets, belonging to Gaussian, Inc.
  
 This software is provided under written license and may be
 used, copied, transmitted, or stored only in accord with that
 written license.
  
 The following legend is applicable only to US Government
 contracts under FAR:
  
                    RESTRICTED RIGHTS LEGEND
  
 Use, reproduction and disclosure by the US Government is
 subject to restrictions as set forth in subparagraphs (a)
 and (c) of the Commercial Computer Software - Restricted
 Rights clause in FAR 52.227-19.
  
 Gaussian, Inc.
 340 Quinnipiac St., Bldg. 40, Wallingford CT 06492
  
  
 ---------------------------------------------------------------
 Warning -- This program may not be used in any manner that
 competes with the business of Gaussian, Inc. or will provide
 assistance to any competitor of Gaussian, Inc.  The licensee
 of this program is prohibited from giving any competitor of
 Gaussian, Inc. access to this program.  By using this program,
 the user acknowledges that Gaussian, Inc. is engaged in the
 business of creating and licensing software in the field of
 computational chemistry and represents and warrants to the
 licensee that it is not a competitor of Gaussian, Inc. and that
 it will not use this program in any manner prohibited above.
 ---------------------------------------------------------------
  

 Cite this work as:
 Gaussian 16, Revision A.03,
 M. J. Frisch, G. W. Trucks, H. B. Schlegel, G. E. Scuseria, 
 M. A. Robb, J. R. Cheeseman, G. Scalmani, V. Barone, 
 G. A. Petersson, H. Nakatsuji, X. Li, M. Caricato, A. V. Marenich, 
 J. Bloino, B. G. Janesko, R. Gomperts, B. Mennucci, H. P. Hratchian, 
 J. V. Ortiz, A. F. Izmaylov, J. L. Sonnenberg, D. Williams-Young, 
 F. Ding, F. Lipparini, F. Egidi, J. Goings, B. Peng, A. Petrone, 
 T. Henderson, D. Ranasinghe, V. G. Zakrzewski, J. Gao, N. Rega, 
 G. Zheng, W. Liang, M. Hada, M. Ehara, K. Toyota, R. Fukuda, 
 J. Hasegawa, M. Ishida, T. Nakajima, Y. Honda, O. Kitao, H. Nakai, 
 T. Vreven, K. Throssell, J. A. Montgomery, Jr., J. E. Peralta, 
 F. Ogliaro, M. J. Bearpark, J. J. Heyd, E. N. Brothers, K. N. Kudin, 
 V. N. Staroverov, T. A. Keith, R. Kobayashi, J. Normand, 
 K. Raghavachari, A. P. Rendell, J. C. Burant, S. S. Iyengar, 
 J. Tomasi, M. Cossi, J. M. Millam, M. Klene, C. Adamo, R. Cammi, 
 J. W. Ochterski, R. L. Martin, K. Morokuma, O. Farkas, 
 J. B. Foresman, and D. J. Fox, Gaussian, Inc., Wallingford CT, 2016.
 
 ******************************************
 Gaussian 16:  ES64L-G16RevA.03 25-Dec-2016
                17-Apr-2021 
 ******************************************
 %RWF=temp23_18534,70GB
 %nprocshared=48
 Will use up to   48 processors via shared memory.
 Default route: MaxDisk=80GB
 ----------------------------------------------------------------------
 #P M062X/GEN Integral=UltraFineGrid SCF=NoSymm Stable=(RExt, Opt) IOp(
 1/33=1)
 ----------------------------------------------------------------------
 1/33=1,38=1,172=1/1;
 2/12=2,17=6,18=5,40=1/2;
 3/5=7,11=2,25=1,30=1,74=-55,75=-5/1,2,3;
 4/9=2/1;
 5/5=2,38=5/2;
 6/7=2,8=2,9=2,10=2,28=1/1;
 8/6=1,10=90,11=11/1;
 9/8=-3,42=1,46=1/14;
 5/5=2,8=3,17=40,38=5/8(-2);
 6/7=2,8=2,9=2,10=2,28=1/1;
 99/5=1,9=1/99;
 Leave Link    1 at Sat Apr 17 20:15:19 2021, MaxMem=           0 cpu:               8.6 elap:               0.2
 (Enter /s/ls4/users/knvvv/bin/g16sse/l101.exe)
 ONIOM data not found on unit 2.
 ----------------------
 Database calculations.
 ----------------------
 TstMul:  ICh=     0
 TstMul:  Mul=     1
 TstMul:  ICh=     0
 TstMul:  Mul=     1
 Symbolic Z-matrix:
 Charge =  0 Multiplicity = 1
 H                     0.        0.        0. 
 Si                    0.        0.        1.47863 
 H                     1.39406   0.        1.9715 
 H                    -0.69703   1.2073    1.9715 
 H                    -0.69703  -1.2073    1.9715 
 
 RdStrC is calling ZToCFu for IStruc=1 NZ=     5.
 PrtBox:  NBox=     1 Levels=  1 BoxLen=    8.00 SMaxX=        4.56
          Shift=            1.317200            2.281457            0.000000
 Box      1 Number                   0 centers from      1 to      5:
 After GenITR:
 ITRead=  0  0  0  0  0
 MicOpt= -1 -1 -1 -1 -1
 ITRead=  0  0  0  0  0
 MicOpt= -1 -1 -1 -1 -1
 NAtoms=      5 NQM=        5 NQMF=       0 NMMI=      0 NMMIF=      0
                NMic=       0 NMicF=      0.
                    Isotopes and Nuclear Properties:
 (Nuclear quadrupole moments (NQMom) in fm**2, nuclear magnetic moments (NMagM)
  in nuclear magnetons)

  Atom         1           2           3           4           5
 IAtWgt=           1          28           1           1           1
 AtmWgt=   1.0078250  27.9769284   1.0078250   1.0078250   1.0078250
 NucSpn=           1           0           1           1           1
 AtZEff=  -0.0000000  -0.0000000  -0.0000000  -0.0000000  -0.0000000
 NQMom=    0.0000000   0.0000000   0.0000000   0.0000000   0.0000000
 NMagM=    2.7928460   0.0000000   2.7928460   2.7928460   2.7928460
 AtZNuc=   1.0000000  14.0000000   1.0000000   1.0000000   1.0000000
 No MM parameters found.
 Leave Link  101 at Sat Apr 17 20:15:20 2021, MaxMem=   104857600 cpu:               6.6 elap:               0.2
 (Enter /s/ls4/users/knvvv/bin/g16sse/l202.exe)
                          Input orientation:                          
 ---------------------------------------------------------------------
 Center     Atomic      Atomic             Coordinates (Angstroms)
 Number     Number       Type             X           Y           Z
 ---------------------------------------------------------------------
      1          1           0        0.000000    0.000000    0.000000
      2         14           0        0.000000    0.000000    1.478628
      3          1           0        1.394064    0.000000    1.971504
      4          1           0       -0.697032    1.207295    1.971504
      5          1           0       -0.697032   -1.207295    1.971504
 ---------------------------------------------------------------------
                    Distance matrix (angstroms):
                    1          2          3          4          5
     1  H    0.000000
     2  Si   1.478628   0.000000
     3  H    2.414590   1.478628   0.000000
     4  H    2.414590   1.478628   2.414590   0.000000
     5  H    2.414590   1.478628   2.414590   2.414590   0.000000
 Stoichiometry    H4Si
 Framework group  TD[O(Si),4C3(H)]
 Deg. of freedom     1
 Full point group                 TD      NOp  24
 Largest Abelian subgroup         D2      NOp   4
 Largest concise Abelian subgroup D2      NOp   4
                         Standard orientation:                         
 ---------------------------------------------------------------------
 Center     Atomic      Atomic             Coordinates (Angstroms)
 Number     Number       Type             X           Y           Z
 ---------------------------------------------------------------------
      1          1           0        0.853686    0.853686    0.853686
      2         14           0        0.000000    0.000000    0.000000
      3          1           0       -0.853686   -0.853686    0.853686
      4          1           0       -0.853686    0.853686   -0.853686
      5          1           0        0.853686   -0.853686   -0.853686
 ---------------------------------------------------------------------
 Rotational constants (GHZ):          86.0092698          86.0092698          86.0092698
 Leave Link  202 at Sat Apr 17 20:15:20 2021, MaxMem=   104857600 cpu:              37.6 elap:               0.8
 (Enter /s/ls4/users/knvvv/bin/g16sse/l301.exe)
 General basis read from cards:  (5D, 7F)
 Centers:       1      3      4      5
 S 4 1.00
     Exponent=  1.9069169000D+02 Coefficients=  7.0815167000D-04
     Exponent=  2.8605532000D+01 Coefficients=  5.4678827000D-03
     Exponent=  6.5095943000D+00 Coefficients=  2.7966605000D-02
     Exponent=  1.8412455000D+00 Coefficients=  1.0764538000D-01
 S 1 1.00
     Exponent=  5.9853725000D-01 Coefficients=  1.0000000000D+00
 S 1 1.00
     Exponent=  2.1397624000D-01 Coefficients=  1.0000000000D+00
 S 1 1.00
     Exponent=  8.0316286000D-02 Coefficients=  1.0000000000D+00
 P 1 1.00
     Exponent=  2.2920000000D+00 Coefficients=  1.0000000000D+00
 P 1 1.00
     Exponent=  8.3800000000D-01 Coefficients=  1.0000000000D+00
 P 1 1.00
     Exponent=  2.9200000000D-01 Coefficients=  1.0000000000D+00
 P 1 1.00
     Exponent=  8.4063199228D-02 Coefficients=  1.0000000000D+00
 D 1 1.00
     Exponent=  2.0620000000D+00 Coefficients=  1.0000000000D+00
 D 1 1.00
     Exponent=  6.6200000000D-01 Coefficients=  1.0000000000D+00
 F 1 1.00
     Exponent=  1.3970000000D+00 Coefficients=  1.0000000000D+00
 ****
 Centers:       2
 S 10 1.00
     Exponent=  9.1807069565D+05 Coefficients=  1.2658787192D-05
     Exponent=  1.3748525386D+05 Coefficients=  9.8408387461D-05
     Exponent=  3.1287772714D+04 Coefficients=  5.1731398244D-04
     Exponent=  8.8616105697D+03 Coefficients=  2.1785441933D-03
     Exponent=  2.8906943156D+03 Coefficients=  7.8656853716D-03
     Exponent=  1.0434063979D+03 Coefficients=  2.4987553674D-02
     Exponent=  4.0680160276D+02 Coefficients=  6.9761818844D-02
     Exponent=  1.6848360207D+02 Coefficients=  1.6473362733D-01
     Exponent=  7.3185628823D+01 Coefficients=  3.0285602647D-01
     Exponent=  3.2998485420D+01 Coefficients=  3.6007260439D-01
 S 3 1.00
     Exponent=  2.7878751325D+02 Coefficients=  2.0185463814D-02
     Exponent=  8.5910228722D+01 Coefficients=  1.7720406747D-01
     Exponent=  3.2992604031D+01 Coefficients=  6.3587860906D-01
 S 1 1.00
     Exponent=  1.5033693254D+01 Coefficients=  1.0000000000D+00
 S 1 1.00
     Exponent=  5.7257514773D+00 Coefficients=  1.0000000000D+00
 S 1 1.00
     Exponent=  2.6146521029D+00 Coefficients=  1.0000000000D+00
 S 1 1.00
     Exponent=  1.1757833152D+00 Coefficients=  1.0000000000D+00
 S 1 1.00
     Exponent=  3.5432330868D-01 Coefficients=  1.0000000000D+00
 S 1 1.00
     Exponent=  1.6248335806D-01 Coefficients=  1.0000000000D+00
 S 1 1.00
     Exponent=  6.8332457181D-02 Coefficients=  1.0000000000D+00
 S 1 1.00
     Exponent=  3.0521078871D-02 Coefficients=  1.0000000000D+00
 P 8 1.00
     Exponent=  1.7758850516D+03 Coefficients=  2.0186971126D-04
     Exponent=  4.2083786849D+02 Coefficients=  1.7544314655D-03
     Exponent=  1.3642290243D+02 Coefficients=  9.5039532290D-03
     Exponent=  5.1700991737D+01 Coefficients=  3.7325741590D-02
     Exponent=  2.1559456002D+01 Coefficients=  1.1085396329D-01
     Exponent=  9.5559200095D+00 Coefficients=  2.3756407046D-01
     Exponent=  4.3529819473D+00 Coefficients=  3.5295783750D-01
     Exponent=  2.0096964381D+00 Coefficients=  3.2885931947D-01
 P 2 1.00
     Exponent=  4.6418153780D+01 Coefficients=  2.5858819154D-02
     Exponent=  1.9076417796D+00 Coefficients= -5.9874865899D-01
 P 1 1.00
     Exponent=  9.2337221587D-01 Coefficients=  1.0000000000D+00
 P 1 1.00
     Exponent=  3.4515720370D-01 Coefficients=  1.0000000000D+00
 P 1 1.00
     Exponent=  1.3656834761D-01 Coefficients=  1.0000000000D+00
 P 1 1.00
     Exponent=  5.2987060586D-02 Coefficients=  1.0000000000D+00
 D 1 1.00
     Exponent=  2.6450000000D+00 Coefficients=  1.0000000000D+00
 D 1 1.00
     Exponent=  6.0800000000D-01 Coefficients=  1.0000000000D+00
 D 1 1.00
     Exponent=  2.7200000000D-01 Coefficients=  1.0000000000D+00
 D 1 1.00
     Exponent=  1.1300000000D-01 Coefficients=  1.0000000000D+00
 D 1 1.00
     Exponent=  4.4018904228D-02 Coefficients=  1.0000000000D+00
 F 1 1.00
     Exponent=  5.4100000000D-01 Coefficients=  1.0000000000D+00
 F 1 1.00
     Exponent=  2.1200000000D-01 Coefficients=  1.0000000000D+00
 G 1 1.00
     Exponent=  4.6100000000D-01 Coefficients=  1.0000000000D+00
 ****
 Ernie: Thresh=  0.10000D-02 Tol=  0.10000D-05 Strict=F.
 There are    71 symmetry adapted cartesian basis functions of A   symmetry.
 There are    58 symmetry adapted cartesian basis functions of B1  symmetry.
 There are    58 symmetry adapted cartesian basis functions of B2  symmetry.
 There are    58 symmetry adapted cartesian basis functions of B3  symmetry.
 There are    58 symmetry adapted basis functions of A   symmetry.
 There are    50 symmetry adapted basis functions of B1  symmetry.
 There are    50 symmetry adapted basis functions of B2  symmetry.
 There are    50 symmetry adapted basis functions of B3  symmetry.
   208 basis functions,   292 primitive gaussians,   245 cartesian basis functions
     9 alpha electrons        9 beta electrons
       nuclear repulsion energy        21.3564448587 Hartrees.
 IExCor= 4336 DFT=T Ex+Corr=M062X ExCW=0 ScaHFX=  0.540000
 ScaDFX=  1.000000  1.000000  1.000000  1.000000 ScalE2=  1.000000  1.000000
 IRadAn=      5 IRanWt=     -1 IRanGd=            0 ICorTp=0 IEmpDi=  4
 NAtoms=    5 NActive=    5 NUniq=    2 SFac= 4.00D+00 NAtFMM=   60 NAOKFM=F Big=F
 Integral buffers will be    131072 words long.
 Raffenetti 2 integral format.
 Two-electron integral symmetry is turned on.
 Leave Link  301 at Sat Apr 17 20:15:21 2021, MaxMem=   104857600 cpu:              10.3 elap:               0.2
 (Enter /s/ls4/users/knvvv/bin/g16sse/l302.exe)
 NPDir=0 NMtPBC=     1 NCelOv=     1 NCel=       1 NClECP=     1 NCelD=      1
         NCelK=      1 NCelE2=     1 NClLst=     1 CellRange=     0.0.
 One-electron integrals computed using PRISM.
 One-electron integral symmetry used in STVInt
 PrsmSu:  requested number of processors reduced to:   4 ShMem   1 Linda.
 PrsmSu:  requested number of processors reduced to:  21 ShMem   1 Linda.
 GSVD:  received Info=                   1 from GESDD.
 NBasis=   208 RedAO= T EigKep=  3.00D-05  NBF=    58    50    50    50
 NBsUse=   208 1.00D-06 EigRej= -1.00D+00 NBFU=    58    50    50    50
 Precomputing XC quadrature grid using
 IXCGrd= 4 IRadAn=           5 IRanWt=          -1 IRanGd=           0 AccXCQ= 0.00D+00.
 Generated NRdTot=       0 NPtTot=           0 NUsed=           0 NTot=          32
 NSgBfM=   245   245   245   245   245 MxSgAt=     5 MxSgA2=     5.
 Leave Link  302 at Sat Apr 17 20:15:56 2021, MaxMem=   104857600 cpu:            1666.3 elap:              35.5
 (Enter /s/ls4/users/knvvv/bin/g16sse/l303.exe)
 DipDrv:  MaxL=1.
 Leave Link  303 at Sat Apr 17 20:15:57 2021, MaxMem=   104857600 cpu:              28.6 elap:               0.6
 (Enter /s/ls4/users/knvvv/bin/g16sse/l401.exe)
 SCF N**3 symmetry information disabled.
 ExpMin= 3.05D-02 ExpMax= 9.18D+05 ExpMxC= 1.04D+03 IAcc=3 IRadAn=         5 AccDes= 0.00D+00
 Harris functional with IExCor= 1009 and IRadAn=       5 diagonalized for initial guess.
 HarFok:  IExCor= 1009 AccDes= 0.00D+00 IRadAn=         5 IDoV= 1 UseB2=F ITyADJ=14
 ICtDFT=  3500011 ScaDFX=  1.000000  1.000000  1.000000  1.000000
 FoFCou: FMM=F IPFlag=           0 FMFlag=      100000 FMFlg1=           0
         NFxFlg=           0 DoJE=T BraDBF=F KetDBF=T FulRan=T
         wScrn=  0.000000 ICntrl=       500 IOpCl=  0 I1Cent=   200000004 NGrid=           0
         NMat0=    1 NMatS0=      1 NMatT0=    0 NMatD0=    1 NMtDS0=    0 NMtDT0=    0
 Petite list used in FoFCou.
 CoulSu:  requested number of processors reduced to:  21 ShMem   1 Linda.
 CoulSu:  requested number of processors reduced to:  21 ShMem   1 Linda.
 CoulSu:  requested number of processors reduced to:  21 ShMem   1 Linda.
 CoulSu:  requested number of processors reduced to:  21 ShMem   1 Linda.
 Harris En= -291.713936607619    
 JPrj=0 DoOrth=F DoCkMO=F.
 Initial guess orbital symmetries:
       Occupied  (A1) (A1) (T2) (T2) (T2) (A1) (T2) (T2) (T2)
       Virtual   (T2) (T2) (T2) (A1) (E) (E) (T2) (T2) (T2) (A1)
                 (T2) (T2) (T2) (E) (E) (T1) (T1) (T1) (A1) (T2)
                 (T2) (T2) (A1) (T2) (T2) (T2) (T2) (T2) (T2) (E)
                 (E) (T2) (T2) (T2) (A1) (T1) (T1) (T1) (T2) (T2)
                 (T2) (E) (E) (A1) (T2) (T2) (T2) (T1) (T1) (T1)
                 (T2) (T2) (T2) (E) (E) (A1) (T2) (T2) (T2) (T2)
                 (T2) (T2) (T2) (T2) (T2) (A1) (A1) (E) (E) (T1)
                 (T1) (T1) (E) (E) (T2) (T2) (T2) (T1) (T1) (T1)
                 (T2) (T2) (T2) (A1) (T2) (T2) (T2) (T1) (T1) (T1)
                 (E) (E) (T2) (T2) (T2) (A1) (T1) (T1) (T1) (T2)
                 (T2) (T2) (T2) (T2) (T2) (E) (E) (E) (E) (T2)
                 (T2) (T2) (A1) (T2) (T2) (T2) (A1) (T1) (T1) (T1)
                 (T2) (T2) (T2) (A1) (E) (E) (T2) (T2) (T2) (A2)
                 (T1) (T1) (T1) (T2) (T2) (T2) (A1) (A1) (T2) (T2)
                 (T2) (T1) (T1) (T1) (T2) (T2) (T2) (T2) (T2) (T2)
                 (E) (E) (E) (E) (T1) (T1) (T1) (T2) (T2) (T2)
                 (A1) (E) (E) (T2) (T2) (T2) (T1) (T1) (T1) (T1)
                 (T1) (T1) (T2) (T2) (T2) (E) (E) (T1) (T1) (T1)
                 (T2) (T2) (T2) (E) (E) (T2) (T2) (T2) (A1) (T2)
                 (T2) (T2) (A1) (T2) (T2) (T2) (A1) (A1) (A1)
 The electronic state of the initial guess is 1-A1.
 Leave Link  401 at Sat Apr 17 20:16:21 2021, MaxMem=   104857600 cpu:            1123.4 elap:              24.1
 (Enter /s/ls4/users/knvvv/bin/g16sse/l502.exe)
 Integral symmetry usage will be decided dynamically.
 Closed shell SCF:
 Using DIIS extrapolation, IDIIS=  1040.
 NGot=   104857600 LenX=   104720794 LenY=   104660328
 Requested convergence on RMS density matrix=1.00D-08 within 128 cycles.
 Requested convergence on MAX density matrix=1.00D-06.
 Requested convergence on             energy=1.00D-06.
 No special actions if energy rises.
 Fock matrices will be formed incrementally for  20 cycles.

 Cycle   1  Pass 1  IDiag  1:
 FoFJK:  IHMeth= 1 ICntrl=       0 DoSepK=F KAlg= 0 I1Cent=           0 FoldK=F
 IRaf= 990000000 NMat=       1 IRICut=       1 DoRegI=T DoRafI=F ISym2E= 1 IDoP0=0 IntGTp=1.
 FoFCou: FMM=F IPFlag=           0 FMFlag=      100000 FMFlg1=           0
         NFxFlg=           0 DoJE=F BraDBF=F KetDBF=F FulRan=T
         wScrn=  0.000000 ICntrl=         0 IOpCl=  0 I1Cent=           0 NGrid=           0
         NMat0=    1 NMatS0=      1 NMatT0=    0 NMatD0=    1 NMtDS0=    0 NMtDT0=    0
 Petite list used in FoFCou.
 CoulSu:  requested number of processors reduced to:  21 ShMem   1 Linda.
 E= -291.851478176578    
 DIIS: error= 2.05D-02 at cycle   1 NSaved=   1.
 NSaved= 1 IEnMin= 1 EnMin= -291.851478176578     IErMin= 1 ErrMin= 2.05D-02
 ErrMax= 2.05D-02  0.00D+00 EMaxC= 1.00D-01 BMatC= 3.08D-02 BMatP= 3.08D-02
 IDIUse=3 WtCom= 7.95D-01 WtEn= 2.05D-01
 Coeff-Com:  0.100D+01
 Coeff-En:   0.100D+01
 Coeff:      0.100D+01
 Gap=     0.465 Goal=   None    Shift=    0.000
 GapD=    0.465 DampG=2.000 DampE=0.500 DampFc=1.0000 IDamp=-1.
 RMSDP=7.65D-04 MaxDP=5.37D-02              OVMax= 3.82D-02

 Cycle   2  Pass 1  IDiag  1:
 RMSU=  7.61D-04    CP:  9.92D-01
 CoulSu:  requested number of processors reduced to:  21 ShMem   1 Linda.
 E= -291.864773082348     Delta-E=       -0.013294905770 Rises=F Damp=F
 DIIS: error= 2.52D-03 at cycle   2 NSaved=   2.
 NSaved= 2 IEnMin= 2 EnMin= -291.864773082348     IErMin= 2 ErrMin= 2.52D-03
 ErrMax= 2.52D-03  0.00D+00 EMaxC= 1.00D-01 BMatC= 9.94D-04 BMatP= 3.08D-02
 IDIUse=3 WtCom= 9.75D-01 WtEn= 2.52D-02
 Coeff-Com:  0.885D-01 0.911D+00
 Coeff-En:   0.000D+00 0.100D+01
 Coeff:      0.863D-01 0.914D+00
 Gap=     0.416 Goal=   None    Shift=    0.000
 RMSDP=2.02D-04 MaxDP=1.99D-02 DE=-1.33D-02 OVMax= 3.06D-03

 Cycle   3  Pass 1  IDiag  1:
 RMSU=  1.77D-04    CP:  9.87D-01  1.12D+00
 CoulSu:  requested number of processors reduced to:  21 ShMem   1 Linda.
 E= -291.864982947282     Delta-E=       -0.000209864933 Rises=F Damp=F
 DIIS: error= 7.31D-04 at cycle   3 NSaved=   3.
 NSaved= 3 IEnMin= 3 EnMin= -291.864982947282     IErMin= 3 ErrMin= 7.31D-04
 ErrMax= 7.31D-04  0.00D+00 EMaxC= 1.00D-01 BMatC= 5.25D-05 BMatP= 9.94D-04
 IDIUse=3 WtCom= 9.93D-01 WtEn= 7.31D-03
 Coeff-Com: -0.143D-02 0.176D+00 0.825D+00
 Coeff-En:   0.000D+00 0.000D+00 0.100D+01
 Coeff:     -0.142D-02 0.175D+00 0.827D+00
 Gap=     0.416 Goal=   None    Shift=    0.000
 RMSDP=3.33D-05 MaxDP=2.41D-03 DE=-2.10D-04 OVMax= 4.60D-04

 Cycle   4  Pass 1  IDiag  1:
 RMSU=  1.98D-05    CP:  9.87D-01  1.15D+00  1.08D+00
 CoulSu:  requested number of processors reduced to:  21 ShMem   1 Linda.
 E= -291.864990954136     Delta-E=       -0.000008006854 Rises=F Damp=F
 DIIS: error= 4.16D-05 at cycle   4 NSaved=   4.
 NSaved= 4 IEnMin= 4 EnMin= -291.864990954136     IErMin= 4 ErrMin= 4.16D-05
 ErrMax= 4.16D-05  0.00D+00 EMaxC= 1.00D-01 BMatC= 8.07D-08 BMatP= 5.25D-05
 IDIUse=1 WtCom= 1.00D+00 WtEn= 0.00D+00
 Coeff-Com: -0.533D-03 0.244D-02 0.320D-01 0.966D+00
 Coeff:     -0.533D-03 0.244D-02 0.320D-01 0.966D+00
 Gap=     0.416 Goal=   None    Shift=    0.000
 RMSDP=8.42D-06 MaxDP=6.31D-04 DE=-8.01D-06 OVMax= 1.67D-04

 Cycle   5  Pass 1  IDiag  1:
 RMSU=  2.75D-06    CP:  9.87D-01  1.15D+00  1.08D+00  1.28D+00
 CoulSu:  requested number of processors reduced to:  21 ShMem   1 Linda.
 E= -291.864991047522     Delta-E=       -0.000000093387 Rises=F Damp=F
 DIIS: error= 1.19D-05 at cycle   5 NSaved=   5.
 NSaved= 5 IEnMin= 5 EnMin= -291.864991047522     IErMin= 5 ErrMin= 1.19D-05
 ErrMax= 1.19D-05  0.00D+00 EMaxC= 1.00D-01 BMatC= 1.03D-08 BMatP= 8.07D-08
 IDIUse=1 WtCom= 1.00D+00 WtEn= 0.00D+00
 Coeff-Com: -0.655D-04-0.909D-03-0.588D-02 0.173D+00 0.834D+00
 Coeff:     -0.655D-04-0.909D-03-0.588D-02 0.173D+00 0.834D+00
 Gap=     0.416 Goal=   None    Shift=    0.000
 RMSDP=1.23D-06 MaxDP=9.21D-05 DE=-9.34D-08 OVMax= 3.63D-05

 Cycle   6  Pass 1  IDiag  1:
 RMSU=  3.97D-07    CP:  9.87D-01  1.15D+00  1.09D+00  1.30D+00  1.04D+00
 CoulSu:  requested number of processors reduced to:  21 ShMem   1 Linda.
 E= -291.864991057328     Delta-E=       -0.000000009805 Rises=F Damp=F
 DIIS: error= 3.10D-06 at cycle   6 NSaved=   6.
 NSaved= 6 IEnMin= 6 EnMin= -291.864991057328     IErMin= 6 ErrMin= 3.10D-06
 ErrMax= 3.10D-06  0.00D+00 EMaxC= 1.00D-01 BMatC= 4.28D-10 BMatP= 1.03D-08
 IDIUse=1 WtCom= 1.00D+00 WtEn= 0.00D+00
 Coeff-Com:  0.250D-04-0.129D-03-0.771D-03-0.577D-01 0.266D-01 0.103D+01
 Coeff:      0.250D-04-0.129D-03-0.771D-03-0.577D-01 0.266D-01 0.103D+01
 Gap=     0.416 Goal=   None    Shift=    0.000
 RMSDP=5.18D-07 MaxDP=4.00D-05 DE=-9.81D-09 OVMax= 1.18D-05

 Cycle   7  Pass 1  IDiag  1:
 RMSU=  1.03D-07    CP:  9.87D-01  1.15D+00  1.09D+00  1.31D+00  1.08D+00
                    CP:  1.15D+00
 CoulSu:  requested number of processors reduced to:  21 ShMem   1 Linda.
 E= -291.864991058062     Delta-E=       -0.000000000734 Rises=F Damp=F
 DIIS: error= 3.16D-07 at cycle   7 NSaved=   7.
 NSaved= 7 IEnMin= 7 EnMin= -291.864991058062     IErMin= 7 ErrMin= 3.16D-07
 ErrMax= 3.16D-07  0.00D+00 EMaxC= 1.00D-01 BMatC= 1.25D-11 BMatP= 4.28D-10
 IDIUse=1 WtCom= 1.00D+00 WtEn= 0.00D+00
 Coeff-Com: -0.791D-06 0.484D-04 0.207D-03-0.413D-02-0.381D-01-0.152D-01
 Coeff-Com:  0.106D+01
 Coeff:     -0.791D-06 0.484D-04 0.207D-03-0.413D-02-0.381D-01-0.152D-01
 Coeff:      0.106D+01
 Gap=     0.416 Goal=   None    Shift=    0.000
 RMSDP=4.98D-08 MaxDP=6.29D-06 DE=-7.34D-10 OVMax= 1.84D-06

 Cycle   8  Pass 1  IDiag  1:
 RMSU=  2.11D-08    CP:  9.87D-01  1.15D+00  1.09D+00  1.31D+00  1.08D+00
                    CP:  1.22D+00  1.15D+00
 CoulSu:  requested number of processors reduced to:  21 ShMem   1 Linda.
 E= -291.864991058077     Delta-E=       -0.000000000016 Rises=F Damp=F
 DIIS: error= 3.10D-08 at cycle   8 NSaved=   8.
 NSaved= 8 IEnMin= 8 EnMin= -291.864991058077     IErMin= 8 ErrMin= 3.10D-08
 ErrMax= 3.10D-08  0.00D+00 EMaxC= 1.00D-01 BMatC= 7.66D-14 BMatP= 1.25D-11
 IDIUse=1 WtCom= 1.00D+00 WtEn= 0.00D+00
 Coeff-Com: -0.372D-06-0.121D-06-0.529D-05 0.127D-02 0.407D-02-0.111D-01
 Coeff-Com: -0.117D+00 0.112D+01
 Coeff:     -0.372D-06-0.121D-06-0.529D-05 0.127D-02 0.407D-02-0.111D-01
 Coeff:     -0.117D+00 0.112D+01
 Gap=     0.416 Goal=   None    Shift=    0.000
 RMSDP=1.78D-08 MaxDP=1.33D-06 DE=-1.56D-11 OVMax= 1.88D-07

 Cycle   9  Pass 1  IDiag  1:
 RMSU=  8.77D-10    CP:  9.87D-01  1.15D+00  1.09D+00  1.31D+00  1.07D+00
                    CP:  1.22D+00  1.18D+00  1.17D+00
 CoulSu:  requested number of processors reduced to:  21 ShMem   1 Linda.
 E= -291.864991058081     Delta-E=       -0.000000000004 Rises=F Damp=F
 DIIS: error= 4.89D-09 at cycle   9 NSaved=   9.
 NSaved= 9 IEnMin= 9 EnMin= -291.864991058081     IErMin= 9 ErrMin= 4.89D-09
 ErrMax= 4.89D-09  0.00D+00 EMaxC= 1.00D-01 BMatC= 9.40D-16 BMatP= 7.66D-14
 IDIUse=1 WtCom= 1.00D+00 WtEn= 0.00D+00
 Coeff-Com:  0.269D-07-0.115D-05-0.477D-05-0.268D-04 0.161D-03 0.123D-02
 Coeff-Com: -0.831D-02-0.506D-01 0.106D+01
 Coeff:      0.269D-07-0.115D-05-0.477D-05-0.268D-04 0.161D-03 0.123D-02
 Coeff:     -0.831D-02-0.506D-01 0.106D+01
 Gap=     0.416 Goal=   None    Shift=    0.000
 RMSDP=9.43D-10 MaxDP=7.21D-08 DE=-3.75D-12 OVMax= 2.06D-08

 SCF Done:  E(RM062X) =  -291.864991058     A.U. after    9 cycles
            NFock=  9  Conv=0.94D-09     -V/T= 2.0021
 KE= 2.912580920853D+02 PE=-7.372307814156D+02 EE= 1.327512534135D+02
 Leave Link  502 at Sat Apr 17 20:24:16 2021, MaxMem=   104857600 cpu:           22153.6 elap:             475.4
 (Enter /s/ls4/users/knvvv/bin/g16sse/l601.exe)
 Copying SCF densities to generalized density rwf, IOpCl= 0 IROHF=0.

 **********************************************************************

            Population analysis using the SCF density.

 **********************************************************************

 Orbital symmetries:
       Occupied  (A1) (A1) (T2) (T2) (T2) (A1) (T2) (T2) (T2)
       Virtual   (A1) (T2) (T2) (T2) (T2) (T2) (T2) (E) (E) (T2)
                 (T2) (T2) (A1) (E) (E) (T1) (T1) (T1) (A1) (T2)
                 (T2) (T2) (T2) (T2) (T2) (A1) (T2) (T2) (T2) (E)
                 (E) (A1) (T2) (T2) (T2) (T1) (T1) (T1) (T2) (T2)
                 (T2) (E) (E) (A1) (T2) (T2) (T2) (T2) (T2) (T2)
                 (T1) (T1) (T1) (E) (E) (T2) (T2) (T2) (A1) (T2)
                 (T2) (T2) (A1) (T2) (T2) (T2) (A1) (E) (E) (T1)
                 (T1) (T1) (E) (E) (T2) (T2) (T2) (T1) (T1) (T1)
                 (T2) (T2) (T2) (A1) (T2) (T2) (T2) (T1) (T1) (T1)
                 (E) (E) (T2) (T2) (T2) (A1) (T1) (T1) (T1) (T2)
                 (T2) (T2) (T2) (T2) (T2) (E) (E) (E) (E) (T2)
                 (T2) (T2) (A1) (T2) (T2) (T2) (A1) (T1) (T1) (T1)
                 (T2) (T2) (T2) (A1) (E) (E) (T2) (T2) (T2) (A2)
                 (T1) (T1) (T1) (T2) (T2) (T2) (A1) (T2) (T2) (T2)
                 (T1) (T1) (T1) (A1) (T2) (T2) (T2) (T2) (T2) (T2)
                 (E) (E) (E) (E) (T1) (T1) (T1) (T2) (T2) (T2)
                 (A1) (E) (E) (T2) (T2) (T2) (T1) (T1) (T1) (T2)
                 (T2) (T2) (E) (E) (T1) (T1) (T1) (T1) (T1) (T1)
                 (T2) (T2) (T2) (E) (E) (T2) (T2) (T2) (A1) (T2)
                 (T2) (T2) (A1) (T2) (T2) (T2) (A1) (A1) (A1)
 The electronic state is 1-A1.
 Alpha  occ. eigenvalues --  -66.99945  -5.54153  -3.85298  -3.85298  -3.85298
 Alpha  occ. eigenvalues --   -0.62030  -0.40788  -0.40788  -0.40788
 Alpha virt. eigenvalues --    0.00828   0.04150   0.04150   0.04150   0.06623
 Alpha virt. eigenvalues --    0.06623   0.06623   0.06641   0.06641   0.14127
 Alpha virt. eigenvalues --    0.14127   0.14127   0.14162   0.19923   0.19923
 Alpha virt. eigenvalues --    0.23622   0.23622   0.23622   0.26390   0.27262
 Alpha virt. eigenvalues --    0.27262   0.27262   0.30626   0.30626   0.30626
 Alpha virt. eigenvalues --    0.31334   0.34568   0.34568   0.34568   0.40552
 Alpha virt. eigenvalues --    0.40552   0.44306   0.46563   0.46563   0.46563
 Alpha virt. eigenvalues --    0.68662   0.68662   0.68662   0.71714   0.71714
 Alpha virt. eigenvalues --    0.71714   0.75612   0.75612   0.79235   0.82768
 Alpha virt. eigenvalues --    0.82768   0.82768   0.92217   0.92217   0.92217
 Alpha virt. eigenvalues --    0.92691   0.92691   0.92691   1.00282   1.00282
 Alpha virt. eigenvalues --    1.03642   1.03642   1.03642   1.06132   1.28956
 Alpha virt. eigenvalues --    1.28956   1.28956   1.32429   1.37994   1.37994
 Alpha virt. eigenvalues --    1.37994   1.49418   1.78700   1.78700   1.87136
 Alpha virt. eigenvalues --    1.87136   1.87136   1.90641   1.90641   1.97967
 Alpha virt. eigenvalues --    1.97967   1.97967   2.06199   2.06199   2.06199
 Alpha virt. eigenvalues --    2.10266   2.10266   2.10266   2.12613   2.27398
 Alpha virt. eigenvalues --    2.27398   2.27398   2.30888   2.30888   2.30888
 Alpha virt. eigenvalues --    2.39217   2.39217   2.40276   2.40276   2.40276
 Alpha virt. eigenvalues --    2.60446   2.63428   2.63428   2.63428   2.71813
 Alpha virt. eigenvalues --    2.71813   2.71813   2.73784   2.73784   2.73784
 Alpha virt. eigenvalues --    2.89985   2.89985   3.14427   3.14427   3.18103
 Alpha virt. eigenvalues --    3.18103   3.18103   3.26280   3.30352   3.30352
 Alpha virt. eigenvalues --    3.30352   3.34398   3.54374   3.54374   3.54374
 Alpha virt. eigenvalues --    3.73966   3.73966   3.73966   4.76805   5.43190
 Alpha virt. eigenvalues --    5.43190   5.49244   5.49244   5.49244   5.53147
 Alpha virt. eigenvalues --    5.55584   5.55584   5.55584   5.67471   5.67471
 Alpha virt. eigenvalues --    5.67471   5.72438   5.94885   5.94885   5.94885
 Alpha virt. eigenvalues --    5.95729   5.95729   5.95729   5.98749   6.21876
 Alpha virt. eigenvalues --    6.21876   6.21876   6.34797   6.34797   6.34797
 Alpha virt. eigenvalues --    6.40730   6.40730   6.73494   6.73494   6.76246
 Alpha virt. eigenvalues --    6.76246   6.76246   6.99701   6.99701   6.99701
 Alpha virt. eigenvalues --    7.04595   7.55578   7.55578   7.65310   7.65310
 Alpha virt. eigenvalues --    7.65310   7.66756   7.66756   7.66756   7.85651
 Alpha virt. eigenvalues --    7.85651   7.85651   7.87120   7.87120   7.87319
 Alpha virt. eigenvalues --    7.87319   7.87319   8.41734   8.41734   8.41734
 Alpha virt. eigenvalues --    8.51274   8.51274   8.51274   8.64322   8.64322
 Alpha virt. eigenvalues --    8.76510   8.76510   8.76510   8.93701   9.33002
 Alpha virt. eigenvalues --    9.33002   9.33002   9.40002  12.60090  12.60090
 Alpha virt. eigenvalues --   12.60090  16.77933  58.29547 315.55786
          Condensed to atoms (all electrons):
               1          2          3          4          5
     1  H    0.718014   0.416307  -0.013831  -0.013831  -0.013831
     2  Si   0.416307  11.963462   0.416307   0.416307   0.416307
     3  H   -0.013831   0.416307   0.718014  -0.013831  -0.013831
     4  H   -0.013831   0.416307  -0.013831   0.718014  -0.013831
     5  H   -0.013831   0.416307  -0.013831  -0.013831   0.718014
 Mulliken charges:
               1
     1  H   -0.092828
     2  Si   0.371311
     3  H   -0.092828
     4  H   -0.092828
     5  H   -0.092828
 Sum of Mulliken charges =  -0.00000
 Mulliken charges with hydrogens summed into heavy atoms:
               1
     2  Si  -0.000000
 Electronic spatial extent (au):  <R**2>=             68.1094
 Charge=             -0.0000 electrons
 Dipole moment (field-independent basis, Debye):
    X=             -0.0000    Y=              0.0000    Z=              0.0000  Tot=              0.0000
 Quadrupole moment (field-independent basis, Debye-Ang):
   XX=            -16.5346   YY=            -16.5346   ZZ=            -16.5346
   XY=              0.0000   XZ=             -0.0000   YZ=              0.0000
 Traceless Quadrupole moment (field-independent basis, Debye-Ang):
   XX=             -0.0000   YY=              0.0000   ZZ=             -0.0000
   XY=              0.0000   XZ=             -0.0000   YZ=              0.0000
 Octapole moment (field-independent basis, Debye-Ang**2):
  XXX=              0.0000  YYY=             -0.0000  ZZZ=              0.0000  XYY=              0.0000
  XXY=              0.0000  XXZ=              0.0000  XZZ=              0.0000  YZZ=              0.0000
  YYZ=             -0.0000  XYZ=             -1.0416
 Hexadecapole moment (field-independent basis, Debye-Ang**3):
 XXXX=            -42.8438 YYYY=            -42.8438 ZZZZ=            -42.8438 XXXY=             -0.0000
 XXXZ=             -0.0000 YYYX=             -0.0000 YYYZ=              0.0000 ZZZX=             -0.0000
 ZZZY=             -0.0000 XXYY=            -13.9512 XXZZ=            -13.9512 YYZZ=            -13.9512
 XXYZ=              0.0000 YYXZ=             -0.0000 ZZXY=             -0.0000
 N-N= 2.135644485874D+01 E-N=-7.372307816118D+02  KE= 2.912580920853D+02
 PrsmSu:  requested number of processors reduced to:  21 ShMem   1 Linda.
 No NMR shielding tensors so no spin-rotation constants.
 Leave Link  601 at Sat Apr 17 20:24:29 2021, MaxMem=   104857600 cpu:             609.1 elap:              13.1
 (Enter /s/ls4/users/knvvv/bin/g16sse/l801.exe)
 DoSCS=F DFT=T ScalE2(SS,OS)=  1.000000  1.000000
 Range of M.O.s used for correlation:     1   208
 NBasis=   208 NAE=     9 NBE=     9 NFC=     0 NFV=     0
 NROrb=    208 NOA=     9 NOB=     9 NVA=   199 NVB=   199

 **** Warning!!: The largest alpha MO coefficient is  0.10469589D+03

 Leave Link  801 at Sat Apr 17 20:24:30 2021, MaxMem=   104857600 cpu:               4.3 elap:               0.1
 (Enter /s/ls4/users/knvvv/bin/g16sse/l914.exe)
 RHF ground state
 Doing stability rather than CIS.
 Two-electron integrals replicated using symmetry.
 MDV=   104857600 DFT=T DoStab=T Mixed=T DoRPA=F DoScal=F NonHer=F
 Making orbital integer symmetry assigments:
 Orbital symmetries:
       Occupied  (A1) (A1) (T2) (T2) (T2) (A1) (T2) (T2) (T2)
       Virtual   (A1) (T2) (T2) (T2) (T2) (T2) (T2) (E) (E) (T2)
                 (T2) (T2) (A1) (E) (E) (T1) (T1) (T1) (A1) (T2)
                 (T2) (T2) (T2) (T2) (T2) (A1) (T2) (T2) (T2) (E)
                 (E) (A1) (T2) (T2) (T2) (T1) (T1) (T1) (T2) (T2)
                 (T2) (E) (E) (A1) (T2) (T2) (T2) (T2) (T2) (T2)
                 (T1) (T1) (T1) (E) (E) (T2) (T2) (T2) (A1) (T2)
                 (T2) (T2) (A1) (T2) (T2) (T2) (A1) (E) (E) (T1)
                 (T1) (T1) (E) (E) (T2) (T2) (T2) (T1) (T1) (T1)
                 (T2) (T2) (T2) (A1) (T2) (T2) (T2) (T1) (T1) (T1)
                 (E) (E) (T2) (T2) (T2) (A1) (T1) (T1) (T1) (T2)
                 (T2) (T2) (T2) (T2) (T2) (E) (E) (E) (E) (T2)
                 (T2) (T2) (A1) (T2) (T2) (T2) (A1) (T1) (T1) (T1)
                 (T2) (T2) (T2) (A1) (E) (E) (T2) (T2) (T2) (A2)
                 (T1) (T1) (T1) (T2) (T2) (T2) (A1) (T2) (T2) (T2)
                 (T1) (T1) (T1) (A1) (T2) (T2) (T2) (T2) (T2) (T2)
                 (E) (E) (E) (E) (T1) (T1) (T1) (T2) (T2) (T2)
                 (A1) (E) (E) (T2) (T2) (T2) (T1) (T1) (T1) (T2)
                 (T2) (T2) (E) (E) (T1) (T1) (T1) (T1) (T1) (T1)
                 (T2) (T2) (T2) (E) (E) (T2) (T2) (T2) (A1) (T2)
                 (T2) (T2) (A1) (T2) (T2) (T2) (A1) (A1) (A1)
    24 initial guesses have been made.
 Convergence on wavefunction:    0.001000000000000
 Davidson Disk Diagonalization:  ConvIn= 1.00D-03 SkipCon=T Conv= 1.00D-03.
 Max sub-space:  2000 roots to seek:    24 dimension of matrix:         3582
 Iteration     1 Dimension    24 NMult     0 NNew     24
 Estimated number of processors is:   19
 CISAX will form     1 AO SS matrices at one time.
 NMat=     1 NSing=     1 JSym2X= 2.
 FoFJK:  IHMeth= 1 ICntrl=       0 DoSepK=F KAlg= 0 I1Cent=           0 FoldK=F
 IRaf= 990000000 NMat=       1 IRICut=       1 DoRegI=T DoRafI=F ISym2E= 2 IDoP0=0 IntGTp=1.
 FoFCou: FMM=F IPFlag=           0 FMFlag=      100000 FMFlg1=           0
         NFxFlg=           0 DoJE=F BraDBF=F KetDBF=F FulRan=T
         wScrn=  0.000000 ICntrl=         0 IOpCl=  0 I1Cent=           0 NGrid=           0
         NMat0=    1 NMatS0=      1 NMatT0=    0 NMatD0=    1 NMtDS0=    0 NMtDT0=    0
 Integrals replicated using symmetry in FoFCou.
 CoulSu:  requested number of processors reduced to:  18 ShMem   1 Linda.
 NMat=     1 NSing=     1 JSym2X= 2.
 CoulSu:  requested number of processors reduced to:  18 ShMem   1 Linda.
 NMat=     1 NSing=     1 JSym2X= 2.
 CoulSu:  requested number of processors reduced to:  18 ShMem   1 Linda.
 NMat=     1 NSing=     1 JSym2X= 2.
 CoulSu:  requested number of processors reduced to:  18 ShMem   1 Linda.
 NMat=     1 NSing=     1 JSym2X= 2.
 CoulSu:  requested number of processors reduced to:  18 ShMem   1 Linda.
 NMat=     1 NSing=     1 JSym2X= 2.
 CoulSu:  requested number of processors reduced to:  18 ShMem   1 Linda.
 NMat=     1 NSing=     1 JSym2X= 2.
 CoulSu:  requested number of processors reduced to:  18 ShMem   1 Linda.
 NMat=     1 NSing=     1 JSym2X= 2.
 CoulSu:  requested number of processors reduced to:  18 ShMem   1 Linda.
 NMat=     1 NSing=     1 JSym2X= 2.
 CoulSu:  requested number of processors reduced to:  18 ShMem   1 Linda.
 NMat=     1 NSing=     1 JSym2X= 2.
 CoulSu:  requested number of processors reduced to:  18 ShMem   1 Linda.
 NMat=     1 NSing=     1 JSym2X= 2.
 CoulSu:  requested number of processors reduced to:  18 ShMem   1 Linda.
 NMat=     1 NSing=     1 JSym2X= 2.
 CoulSu:  requested number of processors reduced to:  18 ShMem   1 Linda.
 NMat=     1 NSing=     0 JSym2X= 2.
 CoulSu:  requested number of processors reduced to:  18 ShMem   1 Linda.
 NMat=     1 NSing=     0 JSym2X= 2.
 CoulSu:  requested number of processors reduced to:  18 ShMem   1 Linda.
 NMat=     1 NSing=     0 JSym2X= 2.
 CoulSu:  requested number of processors reduced to:  18 ShMem   1 Linda.
 NMat=     1 NSing=     0 JSym2X= 2.
 CoulSu:  requested number of processors reduced to:  18 ShMem   1 Linda.
 NMat=     1 NSing=     0 JSym2X= 2.
 CoulSu:  requested number of processors reduced to:  18 ShMem   1 Linda.
 NMat=     1 NSing=     0 JSym2X= 2.
 CoulSu:  requested number of processors reduced to:  18 ShMem   1 Linda.
 NMat=     1 NSing=     0 JSym2X= 2.
 CoulSu:  requested number of processors reduced to:  18 ShMem   1 Linda.
 NMat=     1 NSing=     0 JSym2X= 2.
 CoulSu:  requested number of processors reduced to:  18 ShMem   1 Linda.
 NMat=     1 NSing=     0 JSym2X= 2.
 CoulSu:  requested number of processors reduced to:  18 ShMem   1 Linda.
 NMat=     1 NSing=     0 JSym2X= 2.
 CoulSu:  requested number of processors reduced to:  18 ShMem   1 Linda.
 NMat=     1 NSing=     0 JSym2X= 2.
 CoulSu:  requested number of processors reduced to:  18 ShMem   1 Linda.
 NMat=     1 NSing=     0 JSym2X= 2.
 CoulSu:  requested number of processors reduced to:  18 ShMem   1 Linda.
 New state      1 was old state      2
 Excitation Energies [eV] at current iteration:
 Root      1 :     9.045357368735200
 Root      2 :     9.045357368775369
 Root      3 :     9.045357368832702
 Root      4 :     9.232949878229331
 Root      5 :     9.232949878236669
 Root      6 :     9.232949878237756
 Root      7 :     9.251803700970633
 Root      8 :     9.251803700982986
 Root      9 :     9.251803700996259
 Root     10 :     9.414171710677339
 Root     11 :     9.414171710678575
 Root     12 :     9.414171710681607
 Root     13 :     9.436952438849415
 Root     14 :     9.502832636776398
 Root     15 :     9.502832636781976
 Root     16 :     9.510678027324564
 Root     17 :     9.510678027345527
 Root     18 :     9.510678027405808
 Root     19 :     9.769257205693455
 Root     20 :     9.769257205696183
 Root     21 :    10.153648865490840
 Root     22 :    11.423365144026520
 Root     23 :    11.423365144038110
 Root     24 :    11.423365144042100
 Iteration     2 Dimension    48 NMult    24 NNew     24
 Estimated number of processors is:   19
 CISAX will form     1 AO SS matrices at one time.
 NMat=     1 NSing=     1 JSym2X= 2.
 CoulSu:  requested number of processors reduced to:  18 ShMem   1 Linda.
 NMat=     1 NSing=     1 JSym2X= 2.
 CoulSu:  requested number of processors reduced to:  18 ShMem   1 Linda.
 NMat=     1 NSing=     1 JSym2X= 2.
 CoulSu:  requested number of processors reduced to:  18 ShMem   1 Linda.
 NMat=     1 NSing=     1 JSym2X= 2.
 CoulSu:  requested number of processors reduced to:  18 ShMem   1 Linda.
 NMat=     1 NSing=     1 JSym2X= 2.
 CoulSu:  requested number of processors reduced to:  18 ShMem   1 Linda.
 NMat=     1 NSing=     1 JSym2X= 2.
 CoulSu:  requested number of processors reduced to:  18 ShMem   1 Linda.
 NMat=     1 NSing=     1 JSym2X= 2.
 CoulSu:  requested number of processors reduced to:  18 ShMem   1 Linda.
 NMat=     1 NSing=     1 JSym2X= 2.
 CoulSu:  requested number of processors reduced to:  18 ShMem   1 Linda.
 NMat=     1 NSing=     1 JSym2X= 2.
 CoulSu:  requested number of processors reduced to:  18 ShMem   1 Linda.
 NMat=     1 NSing=     1 JSym2X= 2.
 CoulSu:  requested number of processors reduced to:  18 ShMem   1 Linda.
 NMat=     1 NSing=     1 JSym2X= 2.
 CoulSu:  requested number of processors reduced to:  18 ShMem   1 Linda.
 NMat=     1 NSing=     1 JSym2X= 2.
 CoulSu:  requested number of processors reduced to:  18 ShMem   1 Linda.
 NMat=     1 NSing=     0 JSym2X= 2.
 CoulSu:  requested number of processors reduced to:  18 ShMem   1 Linda.
 NMat=     1 NSing=     0 JSym2X= 2.
 CoulSu:  requested number of processors reduced to:  18 ShMem   1 Linda.
 NMat=     1 NSing=     0 JSym2X= 2.
 CoulSu:  requested number of processors reduced to:  18 ShMem   1 Linda.
 NMat=     1 NSing=     0 JSym2X= 2.
 CoulSu:  requested number of processors reduced to:  18 ShMem   1 Linda.
 NMat=     1 NSing=     0 JSym2X= 2.
 CoulSu:  requested number of processors reduced to:  18 ShMem   1 Linda.
 NMat=     1 NSing=     0 JSym2X= 2.
 CoulSu:  requested number of processors reduced to:  18 ShMem   1 Linda.
 NMat=     1 NSing=     0 JSym2X= 2.
 CoulSu:  requested number of processors reduced to:  18 ShMem   1 Linda.
 NMat=     1 NSing=     0 JSym2X= 2.
 CoulSu:  requested number of processors reduced to:  18 ShMem   1 Linda.
 NMat=     1 NSing=     0 JSym2X= 2.
 CoulSu:  requested number of processors reduced to:  18 ShMem   1 Linda.
 NMat=     1 NSing=     0 JSym2X= 2.
 CoulSu:  requested number of processors reduced to:  18 ShMem   1 Linda.
 NMat=     1 NSing=     0 JSym2X= 2.
 CoulSu:  requested number of processors reduced to:  18 ShMem   1 Linda.
 NMat=     1 NSing=     0 JSym2X= 2.
 CoulSu:  requested number of processors reduced to:  18 ShMem   1 Linda.
 New state      1 was old state     13
 Root      1 not converged, maximum delta is    0.181777882836860
 Excitation Energies [eV] at current iteration:
 Root      1 :     7.534708583321917   Change is   -1.902243855527497
 Root      2 :     8.171667338592677   Change is   -1.339010688752851
 Root      3 :     8.171667505100258   Change is   -1.339010522305550
 Root      4 :     8.171667648819115   Change is   -1.339010378505449
 Root      5 :     8.474853191542016   Change is   -0.758096686694653
 Root      6 :     8.474853194478891   Change is   -0.758096683758866
 Root      7 :     8.474853245037938   Change is   -0.758096633191393
 Root      8 :     8.737362649018504   Change is   -0.307994719756866
 Root      9 :     8.737363059912129   Change is   -0.307994308823070
 Root     10 :     8.737363389257821   Change is   -0.307993979574880
 Root     11 :     8.938982716938728   Change is   -0.563849919843249
 Root     12 :     8.938982753002913   Change is   -0.563849883773486
 Root     13 :     9.080911205774308   Change is   -0.333260504903030
 Root     14 :     9.080911288884606   Change is   -0.333260421797003
 Root     15 :     9.080911361328358   Change is   -0.333260349350216
 Root     16 :     9.141397215356871   Change is   -0.110406485626115
 Root     17 :     9.141397311184550   Change is   -0.110406389786084
 Root     18 :     9.141397443222738   Change is   -0.110406257773522
 Root     19 :     9.612182747473968   Change is   -0.157074458219488
 Root     20 :     9.612182885498378   Change is   -0.157074320197805
 Root     21 :     9.768133991182685   Change is   -0.385514874308150
 Root     22 :    10.476411871765740   Change is   -0.946953272260783
 Root     23 :    10.476411959913110   Change is   -0.946953184128999
 Root     24 :    10.476412129616030   Change is   -0.946953014422081
 Iteration     3 Dimension    54 NMult    48 NNew      6
 Estimated number of processors is:   19
 CISAX will form     1 AO SS matrices at one time.
 NMat=     1 NSing=     1 JSym2X= 2.
 CoulSu:  requested number of processors reduced to:  18 ShMem   1 Linda.
 NMat=     1 NSing=     1 JSym2X= 2.
 CoulSu:  requested number of processors reduced to:  18 ShMem   1 Linda.
 NMat=     1 NSing=     1 JSym2X= 2.
 CoulSu:  requested number of processors reduced to:  18 ShMem   1 Linda.
 NMat=     1 NSing=     0 JSym2X= 2.
 CoulSu:  requested number of processors reduced to:  18 ShMem   1 Linda.
 NMat=     1 NSing=     0 JSym2X= 2.
 CoulSu:  requested number of processors reduced to:  18 ShMem   1 Linda.
 NMat=     1 NSing=     0 JSym2X= 2.
 CoulSu:  requested number of processors reduced to:  18 ShMem   1 Linda.
 Root      1 not converged, maximum delta is    0.026283385919694
 Excitation Energies [eV] at current iteration:
 Root      1 :     7.315917429387955   Change is   -0.218791153933962
 Root      2 :     8.003741628718691   Change is   -0.167925709873986
 Root      3 :     8.003741695669964   Change is   -0.167925809430294
 Root      4 :     9.056677006247964   Change is   -0.024234282636641
 Root      5 :     9.056677046096857   Change is   -0.024234315231502
 Root      6 :     9.057516964473656   Change is   -0.023394241300653
 Iteration     4 Dimension    60 NMult    54 NNew      6
 Estimated number of processors is:   19
 CISAX will form     1 AO SS matrices at one time.
 NMat=     1 NSing=     1 JSym2X= 2.
 CoulSu:  requested number of processors reduced to:  18 ShMem   1 Linda.
 NMat=     1 NSing=     1 JSym2X= 2.
 CoulSu:  requested number of processors reduced to:  18 ShMem   1 Linda.
 NMat=     1 NSing=     1 JSym2X= 2.
 CoulSu:  requested number of processors reduced to:  18 ShMem   1 Linda.
 NMat=     1 NSing=     0 JSym2X= 2.
 CoulSu:  requested number of processors reduced to:  18 ShMem   1 Linda.
 NMat=     1 NSing=     0 JSym2X= 2.
 CoulSu:  requested number of processors reduced to:  18 ShMem   1 Linda.
 NMat=     1 NSing=     0 JSym2X= 2.
 CoulSu:  requested number of processors reduced to:  18 ShMem   1 Linda.
 Root      1 not converged, maximum delta is    0.014367937488807
 Excitation Energies [eV] at current iteration:
 Root      1 :     7.298600250603390   Change is   -0.017317178784566
 Root      2 :     7.996839459592229   Change is   -0.006902169126462
 Root      3 :     7.996839552726358   Change is   -0.006902142943607
 Root      4 :     9.054361739386621   Change is   -0.002315306710235
 Root      5 :     9.054361751341929   Change is   -0.002315254906036
 Root      6 :     9.054374863810647   Change is   -0.003142100663008
 Iteration     5 Dimension    66 NMult    60 NNew      6
 Estimated number of processors is:   19
 CISAX will form     1 AO SS matrices at one time.
 NMat=     1 NSing=     1 JSym2X= 2.
 CoulSu:  requested number of processors reduced to:  18 ShMem   1 Linda.
 NMat=     1 NSing=     1 JSym2X= 2.
 CoulSu:  requested number of processors reduced to:  18 ShMem   1 Linda.
 NMat=     1 NSing=     1 JSym2X= 2.
 CoulSu:  requested number of processors reduced to:  18 ShMem   1 Linda.
 NMat=     1 NSing=     0 JSym2X= 2.
 CoulSu:  requested number of processors reduced to:  18 ShMem   1 Linda.
 NMat=     1 NSing=     0 JSym2X= 2.
 CoulSu:  requested number of processors reduced to:  18 ShMem   1 Linda.
 NMat=     1 NSing=     0 JSym2X= 2.
 CoulSu:  requested number of processors reduced to:  18 ShMem   1 Linda.
 Root      1 not converged, maximum delta is    0.002392540778866
 Excitation Energies [eV] at current iteration:
 Root      1 :     7.297982750859906   Change is   -0.000617499743484
 Root      2 :     7.996409585749803   Change is   -0.000429873842426
 Root      3 :     7.996409680479261   Change is   -0.000429872247096
 Root      4 :     9.054291122051641   Change is   -0.000070617334980
 Root      5 :     9.054291131993937   Change is   -0.000070619347992
 Root      6 :     9.054291762717977   Change is   -0.000083101092670
 Iteration     6 Dimension    72 NMult    66 NNew      6
 Estimated number of processors is:   19
 CISAX will form     1 AO SS matrices at one time.
 NMat=     1 NSing=     1 JSym2X= 2.
 CoulSu:  requested number of processors reduced to:  18 ShMem   1 Linda.
 NMat=     1 NSing=     1 JSym2X= 2.
 CoulSu:  requested number of processors reduced to:  18 ShMem   1 Linda.
 NMat=     1 NSing=     1 JSym2X= 2.
 CoulSu:  requested number of processors reduced to:  18 ShMem   1 Linda.
 NMat=     1 NSing=     0 JSym2X= 2.
 CoulSu:  requested number of processors reduced to:  18 ShMem   1 Linda.
 NMat=     1 NSing=     0 JSym2X= 2.
 CoulSu:  requested number of processors reduced to:  18 ShMem   1 Linda.
 NMat=     1 NSing=     0 JSym2X= 2.
 CoulSu:  requested number of processors reduced to:  18 ShMem   1 Linda.
 Root      1 has converged.
 Excitation Energies [eV] at current iteration:
 Root      1 :     7.297949605163466   Change is   -0.000033145696440
 Root      2 :     7.996365053125867   Change is   -0.000044532623936
 Root      3 :     7.996365089636158   Change is   -0.000044590843103
 Root      4 :     9.054288167990544   Change is   -0.000002964003393
 Root      5 :     9.054288179993280   Change is   -0.000002942058362
 Root      6 :     9.054288248232497   Change is   -0.000003514485480
 Convergence achieved on expansion vectors.
 ***********************************************************************
 Stability analysis using <AA,BB:AA,BB> singles matrix:
 ***********************************************************************
 1PDM for each excited state written to RWF  633
 Ground to excited state transition densities written to RWF  633

 Eigenvectors of the stability matrix:
 
 Eigenvector   1:      Triplet-T2   Eigenvalue= 0.2681947  <S**2>=2.000
       7 -> 11        -0.22499
       7 -> 12         0.19668
       7 -> 14         0.10743
       7 -> 20         0.19430
       8 -> 13         0.27653
       8 -> 19         0.10771
       8 -> 21         0.17669
       9 -> 11        -0.18299
       9 -> 12        -0.20736
       9 -> 13        -0.11327
       9 -> 15        -0.10203
       9 -> 19         0.18463
 The wavefunction is stable under the perturbations considered.
 Leave Link  914 at Sat Apr 17 20:28:17 2021, MaxMem=   104857600 cpu:            9212.9 elap:             227.9
 (Enter /s/ls4/users/knvvv/bin/g16sse/l508.exe)
 The wavefunction is already stable.
 Leave Link  508 at Sat Apr 17 20:28:18 2021, MaxMem=   104857600 cpu:               2.2 elap:               0.1
 (Enter /s/ls4/users/knvvv/bin/g16sse/l601.exe)
 Copying SCF densities to generalized density rwf, IOpCl= 0 IROHF=0.

 **********************************************************************

            Population analysis using the SCF density.

 **********************************************************************

 Orbital symmetries:
       Occupied  (A1) (A1) (T2) (T2) (T2) (A1) (T2) (T2) (T2)
       Virtual   (A1) (T2) (T2) (T2) (T2) (T2) (T2) (E) (E) (T2)
                 (T2) (T2) (A1) (E) (E) (T1) (T1) (T1) (A1) (T2)
                 (T2) (T2) (T2) (T2) (T2) (A1) (T2) (T2) (T2) (E)
                 (E) (A1) (T2) (T2) (T2) (T1) (T1) (T1) (T2) (T2)
                 (T2) (E) (E) (A1) (T2) (T2) (T2) (T2) (T2) (T2)
                 (T1) (T1) (T1) (E) (E) (T2) (T2) (T2) (A1) (T2)
                 (T2) (T2) (A1) (T2) (T2) (T2) (A1) (E) (E) (T1)
                 (T1) (T1) (E) (E) (T2) (T2) (T2) (T1) (T1) (T1)
                 (T2) (T2) (T2) (A1) (T2) (T2) (T2) (T1) (T1) (T1)
                 (E) (E) (T2) (T2) (T2) (A1) (T1) (T1) (T1) (T2)
                 (T2) (T2) (T2) (T2) (T2) (E) (E) (E) (E) (T2)
                 (T2) (T2) (A1) (T2) (T2) (T2) (A1) (T1) (T1) (T1)
                 (T2) (T2) (T2) (A1) (E) (E) (T2) (T2) (T2) (A2)
                 (T1) (T1) (T1) (T2) (T2) (T2) (A1) (T2) (T2) (T2)
                 (T1) (T1) (T1) (A1) (T2) (T2) (T2) (T2) (T2) (T2)
                 (E) (E) (E) (E) (T1) (T1) (T1) (T2) (T2) (T2)
                 (A1) (E) (E) (T2) (T2) (T2) (T1) (T1) (T1) (T2)
                 (T2) (T2) (E) (E) (T1) (T1) (T1) (T1) (T1) (T1)
                 (T2) (T2) (T2) (E) (E) (T2) (T2) (T2) (A1) (T2)
                 (T2) (T2) (A1) (T2) (T2) (T2) (A1) (A1) (A1)
 The electronic state is 1-A1.
 Alpha  occ. eigenvalues --  -66.99945  -5.54153  -3.85298  -3.85298  -3.85298
 Alpha  occ. eigenvalues --   -0.62030  -0.40788  -0.40788  -0.40788
 Alpha virt. eigenvalues --    0.00828   0.04150   0.04150   0.04150   0.06623
 Alpha virt. eigenvalues --    0.06623   0.06623   0.06641   0.06641   0.14127
 Alpha virt. eigenvalues --    0.14127   0.14127   0.14162   0.19923   0.19923
 Alpha virt. eigenvalues --    0.23622   0.23622   0.23622   0.26390   0.27262
 Alpha virt. eigenvalues --    0.27262   0.27262   0.30626   0.30626   0.30626
 Alpha virt. eigenvalues --    0.31334   0.34568   0.34568   0.34568   0.40552
 Alpha virt. eigenvalues --    0.40552   0.44306   0.46563   0.46563   0.46563
 Alpha virt. eigenvalues --    0.68662   0.68662   0.68662   0.71714   0.71714
 Alpha virt. eigenvalues --    0.71714   0.75612   0.75612   0.79235   0.82768
 Alpha virt. eigenvalues --    0.82768   0.82768   0.92217   0.92217   0.92217
 Alpha virt. eigenvalues --    0.92691   0.92691   0.92691   1.00282   1.00282
 Alpha virt. eigenvalues --    1.03642   1.03642   1.03642   1.06132   1.28956
 Alpha virt. eigenvalues --    1.28956   1.28956   1.32429   1.37994   1.37994
 Alpha virt. eigenvalues --    1.37994   1.49418   1.78700   1.78700   1.87136
 Alpha virt. eigenvalues --    1.87136   1.87136   1.90641   1.90641   1.97967
 Alpha virt. eigenvalues --    1.97967   1.97967   2.06199   2.06199   2.06199
 Alpha virt. eigenvalues --    2.10266   2.10266   2.10266   2.12613   2.27398
 Alpha virt. eigenvalues --    2.27398   2.27398   2.30888   2.30888   2.30888
 Alpha virt. eigenvalues --    2.39217   2.39217   2.40276   2.40276   2.40276
 Alpha virt. eigenvalues --    2.60446   2.63428   2.63428   2.63428   2.71813
 Alpha virt. eigenvalues --    2.71813   2.71813   2.73784   2.73784   2.73784
 Alpha virt. eigenvalues --    2.89985   2.89985   3.14427   3.14427   3.18103
 Alpha virt. eigenvalues --    3.18103   3.18103   3.26280   3.30352   3.30352
 Alpha virt. eigenvalues --    3.30352   3.34398   3.54374   3.54374   3.54374
 Alpha virt. eigenvalues --    3.73966   3.73966   3.73966   4.76805   5.43190
 Alpha virt. eigenvalues --    5.43190   5.49244   5.49244   5.49244   5.53147
 Alpha virt. eigenvalues --    5.55584   5.55584   5.55584   5.67471   5.67471
 Alpha virt. eigenvalues --    5.67471   5.72438   5.94885   5.94885   5.94885
 Alpha virt. eigenvalues --    5.95729   5.95729   5.95729   5.98749   6.21876
 Alpha virt. eigenvalues --    6.21876   6.21876   6.34797   6.34797   6.34797
 Alpha virt. eigenvalues --    6.40730   6.40730   6.73494   6.73494   6.76246
 Alpha virt. eigenvalues --    6.76246   6.76246   6.99701   6.99701   6.99701
 Alpha virt. eigenvalues --    7.04595   7.55578   7.55578   7.65310   7.65310
 Alpha virt. eigenvalues --    7.65310   7.66756   7.66756   7.66756   7.85651
 Alpha virt. eigenvalues --    7.85651   7.85651   7.87120   7.87120   7.87319
 Alpha virt. eigenvalues --    7.87319   7.87319   8.41734   8.41734   8.41734
 Alpha virt. eigenvalues --    8.51274   8.51274   8.51274   8.64322   8.64322
 Alpha virt. eigenvalues --    8.76510   8.76510   8.76510   8.93701   9.33002
 Alpha virt. eigenvalues --    9.33002   9.33002   9.40002  12.60090  12.60090
 Alpha virt. eigenvalues --   12.60090  16.77933  58.29547 315.55786
          Condensed to atoms (all electrons):
               1          2          3          4          5
     1  H    0.718014   0.416307  -0.013831  -0.013831  -0.013831
     2  Si   0.416307  11.963462   0.416307   0.416307   0.416307
     3  H   -0.013831   0.416307   0.718014  -0.013831  -0.013831
     4  H   -0.013831   0.416307  -0.013831   0.718014  -0.013831
     5  H   -0.013831   0.416307  -0.013831  -0.013831   0.718014
 Mulliken charges:
               1
     1  H   -0.092828
     2  Si   0.371311
     3  H   -0.092828
     4  H   -0.092828
     5  H   -0.092828
 Sum of Mulliken charges =  -0.00000
 Mulliken charges with hydrogens summed into heavy atoms:
               1
     2  Si  -0.000000
 Electronic spatial extent (au):  <R**2>=             68.1094
 Charge=             -0.0000 electrons
 Dipole moment (field-independent basis, Debye):
    X=             -0.0000    Y=              0.0000    Z=              0.0000  Tot=              0.0000
 Quadrupole moment (field-independent basis, Debye-Ang):
   XX=            -16.5346   YY=            -16.5346   ZZ=            -16.5346
   XY=              0.0000   XZ=             -0.0000   YZ=              0.0000
 Traceless Quadrupole moment (field-independent basis, Debye-Ang):
   XX=             -0.0000   YY=              0.0000   ZZ=             -0.0000
   XY=              0.0000   XZ=             -0.0000   YZ=              0.0000
 Octapole moment (field-independent basis, Debye-Ang**2):
  XXX=              0.0000  YYY=             -0.0000  ZZZ=              0.0000  XYY=              0.0000
  XXY=              0.0000  XXZ=              0.0000  XZZ=              0.0000  YZZ=              0.0000
  YYZ=             -0.0000  XYZ=             -1.0416
 Hexadecapole moment (field-independent basis, Debye-Ang**3):
 XXXX=            -42.8438 YYYY=            -42.8438 ZZZZ=            -42.8438 XXXY=             -0.0000
 XXXZ=             -0.0000 YYYX=             -0.0000 YYYZ=              0.0000 ZZZX=             -0.0000
 ZZZY=             -0.0000 XXYY=            -13.9512 XXZZ=            -13.9512 YYZZ=            -13.9512
 XXYZ=              0.0000 YYXZ=             -0.0000 ZZXY=             -0.0000
 N-N= 2.135644485874D+01 E-N=-7.372307816118D+02  KE= 2.912580920853D+02
 PrsmSu:  requested number of processors reduced to:  21 ShMem   1 Linda.
 No NMR shielding tensors so no spin-rotation constants.
 Leave Link  601 at Sat Apr 17 20:28:31 2021, MaxMem=   104857600 cpu:             605.9 elap:              13.0
 (Enter /s/ls4/users/knvvv/bin/g16sse/l9999.exe)

 Test job not archived.
 1\1\GINC-N305\Stability\RM062X\Gen\H4Si1\KNVVV\17-Apr-2021\0\\#P M062X
 /GEN Integral=UltraFineGrid SCF=NoSymm Stable=(RExt, Opt) IOp(1/33=1)\
 \Database calculations.\\0,1\H,0,0.,0.,0.\Si,0,0.,0.,1.47862836\H,0,1.
 3940641869,0.,1.97150448\H,0,-0.6970320935,1.2072950004,1.97150448\H,0
 ,-0.6970320935,-1.2072950004,1.97150448\\Version=ES64L-G16RevA.03\Stat
 e=1-A1\HF=-291.8649911\RMSD=9.434e-10\Dipole=0.,0.,0.\Quadrupole=0.,0.
 ,0.,0.,0.,0.\PG=TD [O(Si1),4C3(H1)]\\@


 IF MATHEMATICALLY YOU END UP WITH THE INCORRECT ANSWER,
 TRY MULTIPLYING BY THE PAGE NUMBER.
 Job cpu time:       0 days  9 hours 59 minutes 47.9 seconds.
 Elapsed time:       0 days  0 hours 13 minutes 22.3 seconds.
 File lengths (MBytes):  RWF=    119 Int=      0 D2E=      0 Chk=      6 Scr=      1
 Normal termination of Gaussian 16 at Sat Apr 17 20:28:42 2021.
