 Entering Gaussian System, Link 0=/s/ls4/users/knvvv/bin/g16sse/g16
 Input=data/database/M062X--def2-QZVP--BH76_NH3.gjf
 Output=data/database/M062X--def2-QZVP--BH76_NH3.log
 Initial command:
 /s/ls4/users/knvvv/bin/g16sse/l1.exe "/s/ls4/users/knvvv/bin/scratch/Gau-45974.inp" -scrdir="/s/ls4/users/knvvv/bin/scratch/"
 Entering Link 1 = /s/ls4/users/knvvv/bin/g16sse/l1.exe PID=     45975.
  
 Copyright (c) 1988,1990,1992,1993,1995,1998,2003,2009,2016,
            Gaussian, Inc.  All Rights Reserved.
  
 This is part of the Gaussian(R) 16 program.  It is based on
 the Gaussian(R) 09 system (copyright 2009, Gaussian, Inc.),
 the Gaussian(R) 03 system (copyright 2003, Gaussian, Inc.),
 the Gaussian(R) 98 system (copyright 1998, Gaussian, Inc.),
 the Gaussian(R) 94 system (copyright 1995, Gaussian, Inc.),
 the Gaussian 92(TM) system (copyright 1992, Gaussian, Inc.),
 the Gaussian 90(TM) system (copyright 1990, Gaussian, Inc.),
 the Gaussian 88(TM) system (copyright 1988, Gaussian, Inc.),
 the Gaussian 86(TM) system (copyright 1986, Carnegie Mellon
 University), and the Gaussian 82(TM) system (copyright 1983,
 Carnegie Mellon University). Gaussian is a federally registered
 trademark of Gaussian, Inc.
  
 This software contains proprietary and confidential information,
 including trade secrets, belonging to Gaussian, Inc.
  
 This software is provided under written license and may be
 used, copied, transmitted, or stored only in accord with that
 written license.
  
 The following legend is applicable only to US Government
 contracts under FAR:
  
                    RESTRICTED RIGHTS LEGEND
  
 Use, reproduction and disclosure by the US Government is
 subject to restrictions as set forth in subparagraphs (a)
 and (c) of the Commercial Computer Software - Restricted
 Rights clause in FAR 52.227-19.
  
 Gaussian, Inc.
 340 Quinnipiac St., Bldg. 40, Wallingford CT 06492
  
  
 ---------------------------------------------------------------
 Warning -- This program may not be used in any manner that
 competes with the business of Gaussian, Inc. or will provide
 assistance to any competitor of Gaussian, Inc.  The licensee
 of this program is prohibited from giving any competitor of
 Gaussian, Inc. access to this program.  By using this program,
 the user acknowledges that Gaussian, Inc. is engaged in the
 business of creating and licensing software in the field of
 computational chemistry and represents and warrants to the
 licensee that it is not a competitor of Gaussian, Inc. and that
 it will not use this program in any manner prohibited above.
 ---------------------------------------------------------------
  

 Cite this work as:
 Gaussian 16, Revision A.03,
 M. J. Frisch, G. W. Trucks, H. B. Schlegel, G. E. Scuseria, 
 M. A. Robb, J. R. Cheeseman, G. Scalmani, V. Barone, 
 G. A. Petersson, H. Nakatsuji, X. Li, M. Caricato, A. V. Marenich, 
 J. Bloino, B. G. Janesko, R. Gomperts, B. Mennucci, H. P. Hratchian, 
 J. V. Ortiz, A. F. Izmaylov, J. L. Sonnenberg, D. Williams-Young, 
 F. Ding, F. Lipparini, F. Egidi, J. Goings, B. Peng, A. Petrone, 
 T. Henderson, D. Ranasinghe, V. G. Zakrzewski, J. Gao, N. Rega, 
 G. Zheng, W. Liang, M. Hada, M. Ehara, K. Toyota, R. Fukuda, 
 J. Hasegawa, M. Ishida, T. Nakajima, Y. Honda, O. Kitao, H. Nakai, 
 T. Vreven, K. Throssell, J. A. Montgomery, Jr., J. E. Peralta, 
 F. Ogliaro, M. J. Bearpark, J. J. Heyd, E. N. Brothers, K. N. Kudin, 
 V. N. Staroverov, T. A. Keith, R. Kobayashi, J. Normand, 
 K. Raghavachari, A. P. Rendell, J. C. Burant, S. S. Iyengar, 
 J. Tomasi, M. Cossi, J. M. Millam, M. Klene, C. Adamo, R. Cammi, 
 J. W. Ochterski, R. L. Martin, K. Morokuma, O. Farkas, 
 J. B. Foresman, and D. J. Fox, Gaussian, Inc., Wallingford CT, 2016.
 
 ******************************************
 Gaussian 16:  ES64L-G16RevA.03 25-Dec-2016
                16-Apr-2021 
 ******************************************
 %RWF=temp13_68729,70GB
 %nprocshared=48
 Will use up to   48 processors via shared memory.
 Default route: MaxDisk=80GB
 ----------------------------------------------------------------------
 #P M062X/Def2QZVP Integral=UltraFineGrid SCF=NoSymm Stable=(RExt, Opt)
  IOp(1/33=1)
 ----------------------------------------------------------------------
 1/33=1,38=1,172=1/1;
 2/12=2,17=6,18=5,40=1/2;
 3/5=45,7=101,11=2,25=1,30=1,74=-55,75=-5/1,2,3;
 4/9=2/1;
 5/5=2,38=5/2;
 6/7=2,8=2,9=2,10=2,28=1/1;
 8/6=1,10=90,11=11/1;
 9/8=-3,42=1,46=1/14;
 5/5=2,8=3,17=40,38=5/8(-2);
 6/7=2,8=2,9=2,10=2,28=1/1;
 99/5=1,9=1/99;
 Leave Link    1 at Fri Apr 16 23:00:17 2021, MaxMem=           0 cpu:               8.4 elap:               0.2
 (Enter /s/ls4/users/knvvv/bin/g16sse/l101.exe)
 ONIOM data not found on unit 2.
 ----------------------
 Database calculations.
 ----------------------
 TstMul:  ICh=     0
 TstMul:  Mul=     1
 TstMul:  ICh=     0
 TstMul:  Mul=     1
 Symbolic Z-matrix:
 Charge =  0 Multiplicity = 1
 N                     0.        0.        0.28223 
 H                     0.46901   0.81235  -0.09408 
 H                     0.46901  -0.81235  -0.09408 
 H                    -0.93802   0.       -0.09408 
 
 RdStrC is calling ZToCFu for IStruc=1 NZ=     4.
 PrtBox:  NBox=     1 Levels=  1 BoxLen=    8.00 SMaxX=        3.07
          Shift=            1.772609            1.535125            0.177777
 Box      1 Number                   0 centers from      1 to      4:
 After GenITR:
 ITRead=  0  0  0  0
 MicOpt= -1 -1 -1 -1
 ITRead=  0  0  0  0
 MicOpt= -1 -1 -1 -1
 NAtoms=      4 NQM=        4 NQMF=       0 NMMI=      0 NMMIF=      0
                NMic=       0 NMicF=      0.
                    Isotopes and Nuclear Properties:
 (Nuclear quadrupole moments (NQMom) in fm**2, nuclear magnetic moments (NMagM)
  in nuclear magnetons)

  Atom         1           2           3           4
 IAtWgt=          14           1           1           1
 AtmWgt=  14.0030740   1.0078250   1.0078250   1.0078250
 NucSpn=           2           1           1           1
 AtZEff=  -0.0000000  -0.0000000  -0.0000000  -0.0000000
 NQMom=    2.0440000   0.0000000   0.0000000   0.0000000
 NMagM=    0.4037610   2.7928460   2.7928460   2.7928460
 AtZNuc=   7.0000000   1.0000000   1.0000000   1.0000000
 No MM parameters found.
 Leave Link  101 at Fri Apr 16 23:00:17 2021, MaxMem=   104857600 cpu:               6.8 elap:               0.2
 (Enter /s/ls4/users/knvvv/bin/g16sse/l202.exe)
                          Input orientation:                          
 ---------------------------------------------------------------------
 Center     Atomic      Atomic             Coordinates (Angstroms)
 Number     Number       Type             X           Y           Z
 ---------------------------------------------------------------------
      1          7           0        0.000000    0.000000    0.282227
      2          1           0        0.469012    0.812353   -0.094076
      3          1           0        0.469012   -0.812353   -0.094076
      4          1           0       -0.938025    0.000000   -0.094076
 ---------------------------------------------------------------------
                    Distance matrix (angstroms):
                    1          2          3          4
     1  N    0.000000
     2  H    1.010690   0.000000
     3  H    1.010690   1.624706   0.000000
     4  H    1.010690   1.624706   1.624706   0.000000
 Stoichiometry    H3N
 Framework group  C3V[C3(N),3SGV(H)]
 Deg. of freedom     2
 Full point group                 C3V     NOp   6
 Largest Abelian subgroup         CS      NOp   2
 Largest concise Abelian subgroup CS      NOp   2
                         Standard orientation:                         
 ---------------------------------------------------------------------
 Center     Atomic      Atomic             Coordinates (Angstroms)
 Number     Number       Type             X           Y           Z
 ---------------------------------------------------------------------
      1          7           0        0.000000    0.000000    0.112891
      2          1           0        0.000000    0.938025   -0.263412
      3          1           0        0.812353   -0.469012   -0.263412
      4          1           0       -0.812353   -0.469012   -0.263412
 ---------------------------------------------------------------------
 Rotational constants (GHZ):         300.4146825         300.4146825         189.9688599
 Leave Link  202 at Fri Apr 16 23:00:18 2021, MaxMem=   104857600 cpu:               8.6 elap:               0.2
 (Enter /s/ls4/users/knvvv/bin/g16sse/l301.exe)
 Standard basis: def2QZVP (5D, 7F)
 Ernie: Thresh=  0.10000D-02 Tol=  0.10000D-05 Strict=F.
 There are   107 symmetry adapted cartesian basis functions of A'  symmetry.
 There are    70 symmetry adapted cartesian basis functions of A"  symmetry.
 There are    87 symmetry adapted basis functions of A'  symmetry.
 There are    60 symmetry adapted basis functions of A"  symmetry.
   147 basis functions,   206 primitive gaussians,   177 cartesian basis functions
     5 alpha electrons        5 beta electrons
       nuclear repulsion energy        11.9723072601 Hartrees.
 IExCor= 4336 DFT=T Ex+Corr=M062X ExCW=0 ScaHFX=  0.540000
 ScaDFX=  1.000000  1.000000  1.000000  1.000000 ScalE2=  1.000000  1.000000
 IRadAn=      5 IRanWt=     -1 IRanGd=            0 ICorTp=0 IEmpDi=  4
 NAtoms=    4 NActive=    4 NUniq=    2 SFac= 4.00D+00 NAtFMM=   60 NAOKFM=F Big=F
 Integral buffers will be    131072 words long.
 Raffenetti 2 integral format.
 Two-electron integral symmetry is turned on.
 Leave Link  301 at Fri Apr 16 23:00:18 2021, MaxMem=   104857600 cpu:               6.5 elap:               0.2
 (Enter /s/ls4/users/knvvv/bin/g16sse/l302.exe)
 NPDir=0 NMtPBC=     1 NCelOv=     1 NCel=       1 NClECP=     1 NCelD=      1
         NCelK=      1 NCelE2=     1 NClLst=     1 CellRange=     0.0.
 One-electron integrals computed using PRISM.
 One-electron integral symmetry used in STVInt
 PrsmSu:  requested number of processors reduced to:   4 ShMem   1 Linda.
 PrsmSu:  requested number of processors reduced to:  21 ShMem   1 Linda.
   6 Symmetry operations used in ECPInt.
 ECPInt:  NShTT=    1128 NPrTT=    2403 LenC2=    1129 LenP2D=    2319.
 LDataN:  DoStor=T MaxTD1= 8 Len=  415
 Number of processors reduced to  38 by ecpmxn.
 NBasis=   147 RedAO= T EigKep=  1.69D-04  NBF=    87    60
 NBsUse=   147 1.00D-06 EigRej= -1.00D+00 NBFU=    87    60
 Precomputing XC quadrature grid using
 IXCGrd= 4 IRadAn=           5 IRanWt=          -1 IRanGd=           0 AccXCQ= 0.00D+00.
 Generated NRdTot=       0 NPtTot=           0 NUsed=           0 NTot=          32
 NSgBfM=   177   177   177   177   177 MxSgAt=     4 MxSgA2=     4.
 Leave Link  302 at Fri Apr 16 23:00:29 2021, MaxMem=   104857600 cpu:             497.4 elap:              10.7
 (Enter /s/ls4/users/knvvv/bin/g16sse/l303.exe)
 DipDrv:  MaxL=1.
 Leave Link  303 at Fri Apr 16 23:00:29 2021, MaxMem=   104857600 cpu:              29.8 elap:               0.7
 (Enter /s/ls4/users/knvvv/bin/g16sse/l401.exe)
 SCF N**3 symmetry information disabled.
 ExpMin= 8.03D-02 ExpMax= 9.07D+04 ExpMxC= 8.76D+02 IAcc=3 IRadAn=         5 AccDes= 0.00D+00
 Harris functional with IExCor= 1009 and IRadAn=       5 diagonalized for initial guess.
 HarFok:  IExCor= 1009 AccDes= 0.00D+00 IRadAn=         5 IDoV= 1 UseB2=F ITyADJ=14
 ICtDFT=  3500011 ScaDFX=  1.000000  1.000000  1.000000  1.000000
 FoFCou: FMM=F IPFlag=           0 FMFlag=      100000 FMFlg1=           0
         NFxFlg=           0 DoJE=T BraDBF=F KetDBF=T FulRan=T
         wScrn=  0.000000 ICntrl=       500 IOpCl=  0 I1Cent=   200000004 NGrid=           0
         NMat0=    1 NMatS0=      1 NMatT0=    0 NMatD0=    1 NMtDS0=    0 NMtDT0=    0
 Petite list used in FoFCou.
 CoulSu:  requested number of processors reduced to:  21 ShMem   1 Linda.
 CoulSu:  requested number of processors reduced to:  21 ShMem   1 Linda.
 CoulSu:  requested number of processors reduced to:  21 ShMem   1 Linda.
 CoulSu:  requested number of processors reduced to:  21 ShMem   1 Linda.
 Harris En= -56.5624941259274    
 JPrj=0 DoOrth=F DoCkMO=F.
 Initial guess orbital symmetries:
       Occupied  (A1) (A1) (E) (E) (A1)
       Virtual   (A1) (E) (E) (A1) (E) (E) (A1) (E) (E) (E) (E)
                 (A1) (A1) (E) (E) (A2) (E) (E) (A1) (E) (E) (A1)
                 (E) (E) (A1) (E) (E) (A1) (E) (E) (A1) (E) (E)
                 (A2) (A2) (E) (E) (E) (E) (A1) (E) (E) (E) (E)
                 (A1) (E) (E) (A1) (A1) (E) (E) (E) (E) (A2) (A1)
                 (E) (E) (A1) (A1) (E) (E) (A2) (E) (E) (A1) (E)
                 (E) (A1) (E) (E) (E) (E) (A1) (E) (E) (E) (E)
                 (A2) (A2) (A1) (E) (E) (E) (E) (E) (E) (A2) (A1)
                 (A1) (E) (E) (E) (E) (A1) (A1) (E) (E) (E) (E)
                 (A2) (A1) (E) (E) (A1) (E) (E) (A2) (E) (E) (A2)
                 (E) (E) (A1) (A1) (E) (E) (A1) (E) (E) (E) (E)
                 (A1) (E) (E) (A2) (A1) (E) (E) (A1) (E) (E) (A1)
                 (E) (E) (E) (E) (A2) (E) (E) (A1) (A1) (A1)
 The electronic state of the initial guess is 1-A1.
 Leave Link  401 at Fri Apr 16 23:00:30 2021, MaxMem=   104857600 cpu:              32.5 elap:               0.9
 (Enter /s/ls4/users/knvvv/bin/g16sse/l502.exe)
 Integral symmetry usage will be decided dynamically.
 Closed shell SCF:
 Using DIIS extrapolation, IDIIS=  1040.
 NGot=   104857600 LenX=   104784343 LenY=   104752573
 Requested convergence on RMS density matrix=1.00D-08 within 128 cycles.
 Requested convergence on MAX density matrix=1.00D-06.
 Requested convergence on             energy=1.00D-06.
 No special actions if energy rises.
 Fock matrices will be formed incrementally for  20 cycles.
 Integral accuracy reduced to 1.0D-05 until final iterations.

 Cycle   1  Pass 0  IDiag  1:
 FoFJK:  IHMeth= 1 ICntrl=       0 DoSepK=F KAlg= 0 I1Cent=           0 FoldK=F
 IRaf= 990000000 NMat=       1 IRICut=       1 DoRegI=T DoRafI=F ISym2E= 1 IDoP0=0 IntGTp=1.
 FoFCou: FMM=F IPFlag=           0 FMFlag=      100000 FMFlg1=           0
         NFxFlg=           0 DoJE=F BraDBF=F KetDBF=F FulRan=T
         wScrn=  0.000000 ICntrl=         0 IOpCl=  0 I1Cent=           0 NGrid=           0
         NMat0=    1 NMatS0=      1 NMatT0=    0 NMatD0=    1 NMtDS0=    0 NMtDT0=    0
 Petite list used in FoFCou.
 CoulSu:  requested number of processors reduced to:  21 ShMem   1 Linda.
 E= -56.4706088329724    
 DIIS: error= 4.87D-02 at cycle   1 NSaved=   1.
 NSaved= 1 IEnMin= 1 EnMin= -56.4706088329724     IErMin= 1 ErrMin= 4.87D-02
 ErrMax= 4.87D-02  0.00D+00 EMaxC= 1.00D-01 BMatC= 1.38D-01 BMatP= 1.38D-01
 IDIUse=3 WtCom= 5.13D-01 WtEn= 4.87D-01
 Coeff-Com:  0.100D+01
 Coeff-En:   0.100D+01
 Coeff:      0.100D+01
 Gap=     0.255 Goal=   None    Shift=    0.000
 GapD=    0.255 DampG=1.000 DampE=0.500 DampFc=0.5000 IDamp=-1.
 Damping current iteration by 5.00D-01
 RMSDP=2.69D-03 MaxDP=1.05D-01              OVMax= 1.98D-01

 Cycle   2  Pass 0  IDiag  1:
 RMSU=  1.30D-03    CP:  9.39D-01
 CoulSu:  requested number of processors reduced to:  21 ShMem   1 Linda.
 E= -56.5116543509213     Delta-E=       -0.041045517949 Rises=F Damp=T
 DIIS: error= 1.77D-02 at cycle   2 NSaved=   2.
 NSaved= 2 IEnMin= 2 EnMin= -56.5116543509213     IErMin= 2 ErrMin= 1.77D-02
 ErrMax= 1.77D-02  0.00D+00 EMaxC= 1.00D-01 BMatC= 1.03D-02 BMatP= 1.38D-01
 IDIUse=3 WtCom= 8.23D-01 WtEn= 1.77D-01
 Coeff-Com: -0.134D-01 0.101D+01
 Coeff-En:   0.741D-01 0.926D+00
 Coeff:      0.205D-02 0.998D+00
 Gap=     0.384 Goal=   None    Shift=    0.000
 RMSDP=6.72D-04 MaxDP=3.67D-02 DE=-4.10D-02 OVMax= 1.11D-01

 Cycle   3  Pass 0  IDiag  1:
 RMSU=  6.37D-04    CP:  9.67D-01  8.99D-01
 CoulSu:  requested number of processors reduced to:  21 ShMem   1 Linda.
 E= -56.5577308287739     Delta-E=       -0.046076477853 Rises=F Damp=F
 DIIS: error= 3.13D-03 at cycle   3 NSaved=   3.
 NSaved= 3 IEnMin= 3 EnMin= -56.5577308287739     IErMin= 3 ErrMin= 3.13D-03
 ErrMax= 3.13D-03  0.00D+00 EMaxC= 1.00D-01 BMatC= 3.58D-04 BMatP= 1.03D-02
 IDIUse=3 WtCom= 9.69D-01 WtEn= 3.13D-02
 Coeff-Com: -0.465D-01 0.105D+00 0.941D+00
 Coeff-En:   0.000D+00 0.000D+00 0.100D+01
 Coeff:     -0.451D-01 0.102D+00 0.943D+00
 Gap=     0.383 Goal=   None    Shift=    0.000
 RMSDP=6.83D-05 MaxDP=5.86D-03 DE=-4.61D-02 OVMax= 5.31D-03

 Cycle   4  Pass 0  IDiag  1:
 RMSU=  5.18D-05    CP:  9.62D-01  9.21D-01  9.72D-01
 CoulSu:  requested number of processors reduced to:  21 ShMem   1 Linda.
 E= -56.5580239400092     Delta-E=       -0.000293111235 Rises=F Damp=F
 DIIS: error= 2.59D-04 at cycle   4 NSaved=   4.
 NSaved= 4 IEnMin= 4 EnMin= -56.5580239400092     IErMin= 4 ErrMin= 2.59D-04
 ErrMax= 2.59D-04  0.00D+00 EMaxC= 1.00D-01 BMatC= 4.05D-06 BMatP= 3.58D-04
 IDIUse=3 WtCom= 9.97D-01 WtEn= 2.59D-03
 Coeff-Com:  0.104D-01-0.200D-01-0.104D+00 0.111D+01
 Coeff-En:   0.000D+00 0.000D+00 0.000D+00 0.100D+01
 Coeff:      0.104D-01-0.200D-01-0.104D+00 0.111D+01
 Gap=     0.383 Goal=   None    Shift=    0.000
 RMSDP=2.04D-05 MaxDP=5.98D-04 DE=-2.93D-04 OVMax= 8.98D-04

 Cycle   5  Pass 0  IDiag  1:
 RMSU=  1.16D-05    CP:  9.62D-01  9.14D-01  9.84D-01  1.22D+00
 CoulSu:  requested number of processors reduced to:  21 ShMem   1 Linda.
 E= -56.5580267644766     Delta-E=       -0.000002824467 Rises=F Damp=F
 DIIS: error= 1.99D-05 at cycle   5 NSaved=   5.
 NSaved= 5 IEnMin= 5 EnMin= -56.5580267644766     IErMin= 5 ErrMin= 1.99D-05
 ErrMax= 1.99D-05  0.00D+00 EMaxC= 1.00D-01 BMatC= 2.47D-08 BMatP= 4.05D-06
 IDIUse=1 WtCom= 1.00D+00 WtEn= 0.00D+00
 Coeff-Com:  0.805D-03-0.225D-02-0.111D-01 0.569D-01 0.956D+00
 Coeff:      0.805D-03-0.225D-02-0.111D-01 0.569D-01 0.956D+00
 Gap=     0.383 Goal=   None    Shift=    0.000
 RMSDP=5.27D-06 MaxDP=2.35D-04 DE=-2.82D-06 OVMax= 1.53D-04

 Initial convergence to 1.0D-05 achieved.  Increase integral accuracy.
 Cycle   6  Pass 1  IDiag  1:
 CoulSu:  requested number of processors reduced to:  21 ShMem   1 Linda.
 E= -56.5580068865436     Delta-E=        0.000019877933 Rises=F Damp=F
 DIIS: error= 4.59D-05 at cycle   1 NSaved=   1.
 NSaved= 1 IEnMin= 1 EnMin= -56.5580068865436     IErMin= 1 ErrMin= 4.59D-05
 ErrMax= 4.59D-05  0.00D+00 EMaxC= 1.00D-01 BMatC= 1.52D-07 BMatP= 1.52D-07
 IDIUse=1 WtCom= 1.00D+00 WtEn= 0.00D+00
 Coeff-Com:  0.100D+01
 Coeff:      0.100D+01
 Gap=     0.383 Goal=   None    Shift=    0.000
 RMSDP=5.27D-06 MaxDP=2.35D-04 DE= 1.99D-05 OVMax= 4.55D-05

 Cycle   7  Pass 1  IDiag  1:
 RMSU=  6.26D-06    CP:  1.00D+00
 CoulSu:  requested number of processors reduced to:  21 ShMem   1 Linda.
 E= -56.5580069250122     Delta-E=       -0.000000038469 Rises=F Damp=F
 DIIS: error= 6.17D-06 at cycle   2 NSaved=   2.
 NSaved= 2 IEnMin= 2 EnMin= -56.5580069250122     IErMin= 2 ErrMin= 6.17D-06
 ErrMax= 6.17D-06  0.00D+00 EMaxC= 1.00D-01 BMatC= 1.53D-09 BMatP= 1.52D-07
 IDIUse=1 WtCom= 1.00D+00 WtEn= 0.00D+00
 Coeff-Com: -0.733D-02 0.101D+01
 Coeff:     -0.733D-02 0.101D+01
 Gap=     0.383 Goal=   None    Shift=    0.000
 RMSDP=6.47D-07 MaxDP=2.08D-05 DE=-3.85D-08 OVMax= 2.33D-05

 Cycle   8  Pass 1  IDiag  1:
 RMSU=  4.50D-07    CP:  1.00D+00  1.07D+00
 CoulSu:  requested number of processors reduced to:  21 ShMem   1 Linda.
 E= -56.5580069251910     Delta-E=       -0.000000000179 Rises=F Damp=F
 DIIS: error= 5.89D-06 at cycle   3 NSaved=   3.
 NSaved= 3 IEnMin= 3 EnMin= -56.5580069251910     IErMin= 3 ErrMin= 5.89D-06
 ErrMax= 5.89D-06  0.00D+00 EMaxC= 1.00D-01 BMatC= 1.53D-09 BMatP= 1.53D-09
 IDIUse=1 WtCom= 1.00D+00 WtEn= 0.00D+00
 Coeff-Com: -0.169D-01 0.508D+00 0.509D+00
 Coeff:     -0.169D-01 0.508D+00 0.509D+00
 Gap=     0.383 Goal=   None    Shift=    0.000
 RMSDP=1.29D-07 MaxDP=4.17D-06 DE=-1.79D-10 OVMax= 1.13D-05

 Cycle   9  Pass 1  IDiag  1:
 RMSU=  9.29D-08    CP:  1.00D+00  1.09D+00  8.81D-01
 CoulSu:  requested number of processors reduced to:  21 ShMem   1 Linda.
 E= -56.5580069263437     Delta-E=       -0.000000001153 Rises=F Damp=F
 DIIS: error= 3.86D-07 at cycle   4 NSaved=   4.
 NSaved= 4 IEnMin= 4 EnMin= -56.5580069263437     IErMin= 4 ErrMin= 3.86D-07
 ErrMax= 3.86D-07  0.00D+00 EMaxC= 1.00D-01 BMatC= 7.95D-12 BMatP= 1.53D-09
 IDIUse=1 WtCom= 1.00D+00 WtEn= 0.00D+00
 Coeff-Com: -0.254D-03-0.509D-01 0.780D-02 0.104D+01
 Coeff:     -0.254D-03-0.509D-01 0.780D-02 0.104D+01
 Gap=     0.383 Goal=   None    Shift=    0.000
 RMSDP=6.00D-08 MaxDP=2.17D-06 DE=-1.15D-09 OVMax= 2.89D-06

 Cycle  10  Pass 1  IDiag  1:
 RMSU=  1.61D-08    CP:  1.00D+00  1.09D+00  9.72D-01  1.17D+00
 CoulSu:  requested number of processors reduced to:  21 ShMem   1 Linda.
 E= -56.5580069263578     Delta-E=       -0.000000000014 Rises=F Damp=F
 DIIS: error= 1.06D-07 at cycle   5 NSaved=   5.
 NSaved= 5 IEnMin= 5 EnMin= -56.5580069263578     IErMin= 5 ErrMin= 1.06D-07
 ErrMax= 1.06D-07  0.00D+00 EMaxC= 1.00D-01 BMatC= 2.11D-13 BMatP= 7.95D-12
 IDIUse=1 WtCom= 1.00D+00 WtEn= 0.00D+00
 Coeff-Com:  0.310D-03-0.663D-02-0.420D-02-0.777D-01 0.109D+01
 Coeff:      0.310D-03-0.663D-02-0.420D-02-0.777D-01 0.109D+01
 Gap=     0.383 Goal=   None    Shift=    0.000
 RMSDP=1.52D-08 MaxDP=5.66D-07 DE=-1.41D-11 OVMax= 8.99D-07

 Cycle  11  Pass 1  IDiag  1:
 RMSU=  3.50D-09    CP:  1.00D+00  1.09D+00  9.95D-01  1.20D+00  1.52D+00
 CoulSu:  requested number of processors reduced to:  21 ShMem   1 Linda.
 E= -56.5580069263576     Delta-E=        0.000000000000 Rises=F Damp=F
 DIIS: error= 2.12D-08 at cycle   6 NSaved=   6.
 NSaved= 6 IEnMin= 5 EnMin= -56.5580069263578     IErMin= 6 ErrMin= 2.12D-08
 ErrMax= 2.12D-08  0.00D+00 EMaxC= 1.00D-01 BMatC= 2.37D-14 BMatP= 2.11D-13
 IDIUse=1 WtCom= 1.00D+00 WtEn= 0.00D+00
 Coeff-Com:  0.606D-04 0.330D-02-0.457D-03-0.838D-01 0.717D-01 0.101D+01
 Coeff:      0.606D-04 0.330D-02-0.457D-03-0.838D-01 0.717D-01 0.101D+01
 Gap=     0.383 Goal=   None    Shift=    0.000
 RMSDP=2.78D-09 MaxDP=1.30D-07 DE= 1.85D-13 OVMax= 2.36D-07

 SCF Done:  E(RM062X) =  -56.5580069264     A.U. after   11 cycles
            NFock= 11  Conv=0.28D-08     -V/T= 2.0039
 KE= 5.633860153762D+01 PE=-1.560392163170D+02 EE= 3.117030059295D+01
 Leave Link  502 at Fri Apr 16 23:00:46 2021, MaxMem=   104857600 cpu:             633.5 elap:              16.2
 (Enter /s/ls4/users/knvvv/bin/g16sse/l601.exe)
 Copying SCF densities to generalized density rwf, IOpCl= 0 IROHF=0.

 **********************************************************************

            Population analysis using the SCF density.

 **********************************************************************

 Orbital symmetries:
       Occupied  (A1) (A1) (E) (E) (A1)
       Virtual   (A1) (E) (E) (A1) (E) (E) (A1) (E) (E) (A1) (E)
                 (E) (A1) (E) (E) (A2) (E) (E) (E) (E) (A1) (A1)
                 (E) (E) (A1) (E) (E) (A1) (E) (E) (A1) (E) (E)
                 (A2) (A2) (E) (E) (E) (E) (A1) (E) (E) (E) (E)
                 (A1) (A1) (E) (E) (A1) (E) (E) (E) (E) (A2) (A1)
                 (E) (E) (A1) (A1) (E) (E) (A2) (E) (E) (A1) (E)
                 (E) (A1) (E) (E) (E) (E) (A1) (E) (E) (A2) (E)
                 (E) (A2) (E) (E) (A1) (E) (E) (E) (E) (A2) (A1)
                 (A1) (E) (E) (E) (E) (A1) (A1) (E) (E) (E) (E)
                 (A2) (A1) (E) (E) (A1) (E) (E) (A2) (E) (E) (A2)
                 (E) (E) (A1) (A1) (E) (E) (A1) (E) (E) (E) (E)
                 (A1) (E) (E) (A2) (A1) (E) (E) (A1) (E) (E) (A1)
                 (E) (E) (E) (E) (A2) (E) (E) (A1) (A1) (A1)
 The electronic state is 1-A1.
 Alpha  occ. eigenvalues --  -14.72529  -0.95715  -0.53285  -0.53285  -0.34080
 Alpha virt. eigenvalues --    0.04261   0.09715   0.09715   0.23067   0.24074
 Alpha virt. eigenvalues --    0.24074   0.37012   0.40130   0.40130   0.43613
 Alpha virt. eigenvalues --    0.44820   0.44820   0.70085   0.75157   0.75157
 Alpha virt. eigenvalues --    0.75746   0.89284   0.89284   0.95665   0.95665
 Alpha virt. eigenvalues --    0.97106   1.04027   1.14225   1.14225   1.20593
 Alpha virt. eigenvalues --    1.24016   1.24016   1.34149   1.65880   1.65880
 Alpha virt. eigenvalues --    1.95524   2.10087   2.10087   2.14468   2.17374
 Alpha virt. eigenvalues --    2.25483   2.25483   2.27498   2.27498   2.29377
 Alpha virt. eigenvalues --    2.36213   2.36213   2.42282   2.42282   2.53057
 Alpha virt. eigenvalues --    2.57210   2.58108   2.58108   2.78720   2.80508
 Alpha virt. eigenvalues --    2.80508   2.94955   2.94955   3.03913   3.15121
 Alpha virt. eigenvalues --    3.23321   3.23321   3.31368   3.48894   3.64522
 Alpha virt. eigenvalues --    3.64522   3.82539   4.02807   4.02807   4.15209
 Alpha virt. eigenvalues --    4.26758   4.26758   4.67244   5.03603   5.03603
 Alpha virt. eigenvalues --    5.67078   5.67078   5.82321   5.83899   5.83899
 Alpha virt. eigenvalues --    5.91077   5.93608   5.93608   6.35211   6.40825
 Alpha virt. eigenvalues --    6.40825   6.43838   6.60281   6.60281   6.81509
 Alpha virt. eigenvalues --    6.81509   6.83972   6.98142   7.10057   7.11497
 Alpha virt. eigenvalues --    7.11497   7.19541   7.19541   7.30227   7.37851
 Alpha virt. eigenvalues --    7.48276   7.48276   7.63365   7.63365   7.71351
 Alpha virt. eigenvalues --    7.77053   7.77108   7.77108   7.81081   7.86750
 Alpha virt. eigenvalues --    7.86750   7.96455   8.13853   8.13853   8.19312
 Alpha virt. eigenvalues --    8.28611   8.28611   8.34273   8.36664   8.49197
 Alpha virt. eigenvalues --    8.49197   8.82320   8.94794   8.94794   9.26126
 Alpha virt. eigenvalues --    9.26126   9.41714   9.46913   9.46913   9.67743
 Alpha virt. eigenvalues --    9.82276   9.88986   9.88986  10.82174  10.97684
 Alpha virt. eigenvalues --   10.97684  11.35657  11.43683  11.43683  11.57521
 Alpha virt. eigenvalues --   11.57521  11.71526  14.01908  14.01908  14.85674
 Alpha virt. eigenvalues --   38.22756 195.76346
          Condensed to atoms (all electrons):
               1          2          3          4
     1  N    6.684899   0.384074   0.384074   0.384074
     2  H    0.384074   0.403273  -0.033194  -0.033194
     3  H    0.384074  -0.033194   0.403273  -0.033194
     4  H    0.384074  -0.033194  -0.033194   0.403273
 Mulliken charges:
               1
     1  N   -0.837122
     2  H    0.279041
     3  H    0.279041
     4  H    0.279041
 Sum of Mulliken charges =  -0.00000
 Mulliken charges with hydrogens summed into heavy atoms:
               1
     1  N   -0.000000
 Electronic spatial extent (au):  <R**2>=             26.7624
 Charge=             -0.0000 electrons
 Dipole moment (field-independent basis, Debye):
    X=             -0.0000    Y=             -0.0000    Z=             -1.5634  Tot=              1.5634
 Quadrupole moment (field-independent basis, Debye-Ang):
   XX=             -6.2781   YY=             -6.2781   ZZ=             -9.3330
   XY=             -0.0000   XZ=              0.0000   YZ=              0.0000
 Traceless Quadrupole moment (field-independent basis, Debye-Ang):
   XX=              1.0183   YY=              1.0183   ZZ=             -2.0367
   XY=             -0.0000   XZ=              0.0000   YZ=              0.0000
 Octapole moment (field-independent basis, Debye-Ang**2):
  XXX=             -0.0000  YYY=              0.9465  ZZZ=             -1.3622  XYY=              0.0000
  XXY=             -0.9465  XXZ=             -0.8788  XZZ=              0.0000  YZZ=             -0.0000
  YYZ=             -0.8788  XYZ=              0.0000
 Hexadecapole moment (field-independent basis, Debye-Ang**3):
 XXXX=            -10.1808 YYYY=            -10.1808 ZZZZ=            -12.3470 XXXY=              0.0000
 XXXZ=              0.0000 YYYX=             -0.0000 YYYZ=             -0.3529 ZZZX=             -0.0000
 ZZZY=             -0.0000 XXYY=             -3.3936 XXZZ=             -3.8695 YYZZ=             -3.8695
 XXYZ=              0.3529 YYXZ=             -0.0000 ZZXY=              0.0000
 N-N= 1.197230726007D+01 E-N=-1.560392164650D+02  KE= 5.633860153762D+01
 PrsmSu:  requested number of processors reduced to:  21 ShMem   1 Linda.
 No NMR shielding tensors so no spin-rotation constants.
 Leave Link  601 at Fri Apr 16 23:00:49 2021, MaxMem=   104857600 cpu:             137.0 elap:               3.0
 (Enter /s/ls4/users/knvvv/bin/g16sse/l801.exe)
 DoSCS=F DFT=T ScalE2(SS,OS)=  1.000000  1.000000
 Range of M.O.s used for correlation:     1   147
 NBasis=   147 NAE=     5 NBE=     5 NFC=     0 NFV=     0
 NROrb=    147 NOA=     5 NOB=     5 NVA=   142 NVB=   142

 **** Warning!!: The largest alpha MO coefficient is  0.19858383D+02

 Leave Link  801 at Fri Apr 16 23:00:49 2021, MaxMem=   104857600 cpu:               3.7 elap:               0.1
 (Enter /s/ls4/users/knvvv/bin/g16sse/l914.exe)
 RHF ground state
 Doing stability rather than CIS.
 Two-electron integrals replicated using symmetry.
 MDV=   104857600 DFT=T DoStab=T Mixed=T DoRPA=F DoScal=F NonHer=F
 Making orbital integer symmetry assigments:
 Orbital symmetries:
       Occupied  (A1) (A1) (E) (E) (A1)
       Virtual   (A1) (E) (E) (A1) (E) (E) (A1) (E) (E) (A1) (E)
                 (E) (A1) (E) (E) (A2) (E) (E) (E) (E) (A1) (A1)
                 (E) (E) (A1) (E) (E) (A1) (E) (E) (A1) (E) (E)
                 (A2) (A2) (E) (E) (E) (E) (A1) (E) (E) (E) (E)
                 (A1) (A1) (E) (E) (A1) (E) (E) (E) (E) (A2) (A1)
                 (E) (E) (A1) (A1) (E) (E) (A2) (E) (E) (A1) (E)
                 (E) (A1) (E) (E) (E) (E) (A1) (E) (E) (A2) (E)
                 (E) (A2) (E) (E) (A1) (E) (E) (E) (E) (A2) (A1)
                 (A1) (E) (E) (E) (E) (A1) (A1) (E) (E) (E) (E)
                 (A2) (A1) (E) (E) (A1) (E) (E) (A2) (E) (E) (A2)
                 (E) (E) (A1) (A1) (E) (E) (A1) (E) (E) (E) (E)
                 (A1) (E) (E) (A2) (A1) (E) (E) (A1) (E) (E) (A1)
                 (E) (E) (E) (E) (A2) (E) (E) (A1) (A1) (A1)
    24 initial guesses have been made.
 Convergence on wavefunction:    0.001000000000000
 Davidson Disk Diagonalization:  ConvIn= 1.00D-03 SkipCon=T Conv= 1.00D-03.
 Max sub-space:  2000 roots to seek:    24 dimension of matrix:         1420
 Iteration     1 Dimension    24 NMult     0 NNew     24
 Estimated number of processors is:   20
 CISAX will form     1 AO SS matrices at one time.
 NMat=     1 NSing=     1 JSym2X= 2.
 FoFJK:  IHMeth= 1 ICntrl=       0 DoSepK=F KAlg= 0 I1Cent=           0 FoldK=F
 IRaf= 990000000 NMat=       1 IRICut=       1 DoRegI=T DoRafI=F ISym2E= 2 IDoP0=0 IntGTp=1.
 FoFCou: FMM=F IPFlag=           0 FMFlag=      100000 FMFlg1=           0
         NFxFlg=           0 DoJE=F BraDBF=F KetDBF=F FulRan=T
         wScrn=  0.000000 ICntrl=         0 IOpCl=  0 I1Cent=           0 NGrid=           0
         NMat0=    1 NMatS0=      1 NMatT0=    0 NMatD0=    1 NMtDS0=    0 NMtDT0=    0
 Integrals replicated using symmetry in FoFCou.
 CoulSu:  requested number of processors reduced to:  20 ShMem   1 Linda.
 NMat=     1 NSing=     1 JSym2X= 2.
 CoulSu:  requested number of processors reduced to:  20 ShMem   1 Linda.
 NMat=     1 NSing=     1 JSym2X= 2.
 CoulSu:  requested number of processors reduced to:  20 ShMem   1 Linda.
 NMat=     1 NSing=     1 JSym2X= 2.
 CoulSu:  requested number of processors reduced to:  20 ShMem   1 Linda.
 NMat=     1 NSing=     1 JSym2X= 2.
 CoulSu:  requested number of processors reduced to:  20 ShMem   1 Linda.
 NMat=     1 NSing=     1 JSym2X= 2.
 CoulSu:  requested number of processors reduced to:  20 ShMem   1 Linda.
 NMat=     1 NSing=     1 JSym2X= 2.
 CoulSu:  requested number of processors reduced to:  20 ShMem   1 Linda.
 NMat=     1 NSing=     1 JSym2X= 2.
 CoulSu:  requested number of processors reduced to:  20 ShMem   1 Linda.
 NMat=     1 NSing=     1 JSym2X= 2.
 CoulSu:  requested number of processors reduced to:  20 ShMem   1 Linda.
 NMat=     1 NSing=     1 JSym2X= 2.
 CoulSu:  requested number of processors reduced to:  20 ShMem   1 Linda.
 NMat=     1 NSing=     1 JSym2X= 2.
 CoulSu:  requested number of processors reduced to:  20 ShMem   1 Linda.
 NMat=     1 NSing=     1 JSym2X= 2.
 CoulSu:  requested number of processors reduced to:  20 ShMem   1 Linda.
 NMat=     1 NSing=     0 JSym2X= 2.
 CoulSu:  requested number of processors reduced to:  20 ShMem   1 Linda.
 NMat=     1 NSing=     0 JSym2X= 2.
 CoulSu:  requested number of processors reduced to:  20 ShMem   1 Linda.
 NMat=     1 NSing=     0 JSym2X= 2.
 CoulSu:  requested number of processors reduced to:  20 ShMem   1 Linda.
 NMat=     1 NSing=     0 JSym2X= 2.
 CoulSu:  requested number of processors reduced to:  20 ShMem   1 Linda.
 NMat=     1 NSing=     0 JSym2X= 2.
 CoulSu:  requested number of processors reduced to:  20 ShMem   1 Linda.
 NMat=     1 NSing=     0 JSym2X= 2.
 CoulSu:  requested number of processors reduced to:  20 ShMem   1 Linda.
 NMat=     1 NSing=     0 JSym2X= 2.
 CoulSu:  requested number of processors reduced to:  20 ShMem   1 Linda.
 NMat=     1 NSing=     0 JSym2X= 2.
 CoulSu:  requested number of processors reduced to:  20 ShMem   1 Linda.
 NMat=     1 NSing=     0 JSym2X= 2.
 CoulSu:  requested number of processors reduced to:  20 ShMem   1 Linda.
 NMat=     1 NSing=     0 JSym2X= 2.
 CoulSu:  requested number of processors reduced to:  20 ShMem   1 Linda.
 NMat=     1 NSing=     0 JSym2X= 2.
 CoulSu:  requested number of processors reduced to:  20 ShMem   1 Linda.
 NMat=     1 NSing=     0 JSym2X= 2.
 CoulSu:  requested number of processors reduced to:  20 ShMem   1 Linda.
 New state      1 was old state      2
 Excitation Energies [eV] at current iteration:
 Root      1 :     7.238660676725086
 Root      2 :     7.344797364711365
 Root      3 :     8.971748648260911
 Root      4 :     8.971785672242540
 Root      5 :     9.060298458707996
 Root      6 :     9.060328155565196
 Root      7 :    11.558970739426740
 Root      8 :    11.935419107826410
 Root      9 :    11.935429172260030
 Root     10 :    12.134647566133930
 Root     11 :    12.134659695902340
 Root     12 :    12.192117419035520
 Root     13 :    12.192130114714060
 Root     14 :    12.535148740138950
 Root     15 :    12.662708169420990
 Root     16 :    12.662719038016070
 Root     17 :    14.004358210333310
 Root     18 :    14.004392249867630
 Root     19 :    14.042024583735080
 Root     20 :    14.178934508422950
 Root     21 :    14.181989047545850
 Root     22 :    14.205329057276400
 Root     23 :    14.205369691164830
 Root     24 :    20.039708525897280
 Iteration     2 Dimension    48 NMult    24 NNew     24
 Estimated number of processors is:   20
 CISAX will form     1 AO SS matrices at one time.
 NMat=     1 NSing=     1 JSym2X= 2.
 CoulSu:  requested number of processors reduced to:  20 ShMem   1 Linda.
 NMat=     1 NSing=     1 JSym2X= 2.
 CoulSu:  requested number of processors reduced to:  20 ShMem   1 Linda.
 NMat=     1 NSing=     1 JSym2X= 2.
 CoulSu:  requested number of processors reduced to:  20 ShMem   1 Linda.
 NMat=     1 NSing=     1 JSym2X= 2.
 CoulSu:  requested number of processors reduced to:  20 ShMem   1 Linda.
 NMat=     1 NSing=     1 JSym2X= 2.
 CoulSu:  requested number of processors reduced to:  20 ShMem   1 Linda.
 NMat=     1 NSing=     1 JSym2X= 2.
 CoulSu:  requested number of processors reduced to:  20 ShMem   1 Linda.
 NMat=     1 NSing=     1 JSym2X= 2.
 CoulSu:  requested number of processors reduced to:  20 ShMem   1 Linda.
 NMat=     1 NSing=     1 JSym2X= 2.
 CoulSu:  requested number of processors reduced to:  20 ShMem   1 Linda.
 NMat=     1 NSing=     1 JSym2X= 2.
 CoulSu:  requested number of processors reduced to:  20 ShMem   1 Linda.
 NMat=     1 NSing=     1 JSym2X= 2.
 CoulSu:  requested number of processors reduced to:  20 ShMem   1 Linda.
 NMat=     1 NSing=     1 JSym2X= 2.
 CoulSu:  requested number of processors reduced to:  20 ShMem   1 Linda.
 NMat=     1 NSing=     1 JSym2X= 2.
 CoulSu:  requested number of processors reduced to:  20 ShMem   1 Linda.
 NMat=     1 NSing=     0 JSym2X= 2.
 CoulSu:  requested number of processors reduced to:  20 ShMem   1 Linda.
 NMat=     1 NSing=     0 JSym2X= 2.
 CoulSu:  requested number of processors reduced to:  20 ShMem   1 Linda.
 NMat=     1 NSing=     0 JSym2X= 2.
 CoulSu:  requested number of processors reduced to:  20 ShMem   1 Linda.
 NMat=     1 NSing=     0 JSym2X= 2.
 CoulSu:  requested number of processors reduced to:  20 ShMem   1 Linda.
 NMat=     1 NSing=     0 JSym2X= 2.
 CoulSu:  requested number of processors reduced to:  20 ShMem   1 Linda.
 NMat=     1 NSing=     0 JSym2X= 2.
 CoulSu:  requested number of processors reduced to:  20 ShMem   1 Linda.
 NMat=     1 NSing=     0 JSym2X= 2.
 CoulSu:  requested number of processors reduced to:  20 ShMem   1 Linda.
 NMat=     1 NSing=     0 JSym2X= 2.
 CoulSu:  requested number of processors reduced to:  20 ShMem   1 Linda.
 NMat=     1 NSing=     0 JSym2X= 2.
 CoulSu:  requested number of processors reduced to:  20 ShMem   1 Linda.
 NMat=     1 NSing=     0 JSym2X= 2.
 CoulSu:  requested number of processors reduced to:  20 ShMem   1 Linda.
 NMat=     1 NSing=     0 JSym2X= 2.
 CoulSu:  requested number of processors reduced to:  20 ShMem   1 Linda.
 NMat=     1 NSing=     0 JSym2X= 2.
 CoulSu:  requested number of processors reduced to:  20 ShMem   1 Linda.
 Root      1 not converged, maximum delta is    0.124180068922776
 Excitation Energies [eV] at current iteration:
 Root      1 :     6.732446355964445   Change is   -0.506214320760642
 Root      2 :     7.204144301007053   Change is   -0.140653063704312
 Root      3 :     8.479397790756826   Change is   -0.492350857504086
 Root      4 :     8.479526166312787   Change is   -0.492259505929752
 Root      5 :     8.840878905603152   Change is   -0.219419553104844
 Root      6 :     8.840921759376734   Change is   -0.219406396188463
 Root      7 :    10.689772616699760   Change is   -0.869198122726980
 Root      8 :    11.406462168423360   Change is   -0.785655250612161
 Root      9 :    11.406495147603260   Change is   -0.785634967110794
 Root     10 :    11.631025574864960   Change is   -0.304393532961450
 Root     11 :    11.631058493579240   Change is   -0.304370678680795
 Root     12 :    11.854273745486250   Change is   -0.280373820647688
 Root     13 :    11.854276824433740   Change is   -0.280382871468599
 Root     14 :    12.020923800391370   Change is   -0.514224939747576
 Root     15 :    12.445520237639300   Change is   -1.596504346095781
 Root     16 :    12.491764947569970   Change is   -0.170943221851017
 Root     17 :    12.491772960065520   Change is   -0.170946077950559
 Root     18 :    13.407343762586630   Change is   -0.597014447746678
 Root     19 :    13.407445938510580   Change is   -0.596946311357042
 Root     20 :    13.955216111875670   Change is   -0.250112945400726
 Root     21 :    13.955264345202520   Change is   -0.250105345962306
 Root     22 :    14.024973291112870   Change is   -0.153961217310086
 Root     23 :    14.051497563600800   Change is   -0.130491483945053
 Root     24 :    16.411162837499830   Change is   -3.628545688397446
 Iteration     3 Dimension    54 NMult    48 NNew      6
 Estimated number of processors is:   20
 CISAX will form     1 AO SS matrices at one time.
 NMat=     1 NSing=     1 JSym2X= 2.
 CoulSu:  requested number of processors reduced to:  20 ShMem   1 Linda.
 NMat=     1 NSing=     1 JSym2X= 2.
 CoulSu:  requested number of processors reduced to:  20 ShMem   1 Linda.
 NMat=     1 NSing=     1 JSym2X= 2.
 CoulSu:  requested number of processors reduced to:  20 ShMem   1 Linda.
 NMat=     1 NSing=     0 JSym2X= 2.
 CoulSu:  requested number of processors reduced to:  20 ShMem   1 Linda.
 NMat=     1 NSing=     0 JSym2X= 2.
 CoulSu:  requested number of processors reduced to:  20 ShMem   1 Linda.
 NMat=     1 NSing=     0 JSym2X= 2.
 CoulSu:  requested number of processors reduced to:  20 ShMem   1 Linda.
 Root      1 not converged, maximum delta is    0.007068517973639
 Excitation Energies [eV] at current iteration:
 Root      1 :     6.718673867858190   Change is   -0.013772488106255
 Root      2 :     7.195413558677970   Change is   -0.008730742329083
 Root      3 :     8.466884371313697   Change is   -0.012513419443129
 Root      4 :     8.467016787614327   Change is   -0.012509378698460
 Root      5 :     8.830760538462187   Change is   -0.010118367140964
 Root      6 :     8.830805628398121   Change is   -0.010116130978613
 Iteration     4 Dimension    60 NMult    54 NNew      6
 Estimated number of processors is:   20
 CISAX will form     1 AO SS matrices at one time.
 NMat=     1 NSing=     1 JSym2X= 2.
 CoulSu:  requested number of processors reduced to:  20 ShMem   1 Linda.
 NMat=     1 NSing=     1 JSym2X= 2.
 CoulSu:  requested number of processors reduced to:  20 ShMem   1 Linda.
 NMat=     1 NSing=     1 JSym2X= 2.
 CoulSu:  requested number of processors reduced to:  20 ShMem   1 Linda.
 NMat=     1 NSing=     0 JSym2X= 2.
 CoulSu:  requested number of processors reduced to:  20 ShMem   1 Linda.
 NMat=     1 NSing=     0 JSym2X= 2.
 CoulSu:  requested number of processors reduced to:  20 ShMem   1 Linda.
 NMat=     1 NSing=     0 JSym2X= 2.
 CoulSu:  requested number of processors reduced to:  20 ShMem   1 Linda.
 Root      1 not converged, maximum delta is    0.001231671375233
 Excitation Energies [eV] at current iteration:
 Root      1 :     6.718391654268545   Change is   -0.000282213589645
 Root      2 :     7.195120443821392   Change is   -0.000293114856579
 Root      3 :     8.466544161270789   Change is   -0.000340210042906
 Root      4 :     8.466676686830196   Change is   -0.000340100784131
 Root      5 :     8.830635726008992   Change is   -0.000124812453194
 Root      6 :     8.830680849921077   Change is   -0.000124778477044
 Iteration     5 Dimension    66 NMult    60 NNew      6
 Estimated number of processors is:   20
 CISAX will form     1 AO SS matrices at one time.
 NMat=     1 NSing=     1 JSym2X= 2.
 CoulSu:  requested number of processors reduced to:  20 ShMem   1 Linda.
 NMat=     1 NSing=     1 JSym2X= 2.
 CoulSu:  requested number of processors reduced to:  20 ShMem   1 Linda.
 NMat=     1 NSing=     1 JSym2X= 2.
 CoulSu:  requested number of processors reduced to:  20 ShMem   1 Linda.
 NMat=     1 NSing=     0 JSym2X= 2.
 CoulSu:  requested number of processors reduced to:  20 ShMem   1 Linda.
 NMat=     1 NSing=     0 JSym2X= 2.
 CoulSu:  requested number of processors reduced to:  20 ShMem   1 Linda.
 NMat=     1 NSing=     0 JSym2X= 2.
 CoulSu:  requested number of processors reduced to:  20 ShMem   1 Linda.
 Root      1 has converged.
 Excitation Energies [eV] at current iteration:
 Root      1 :     6.718385131134300   Change is   -0.000006523134245
 Root      2 :     7.195115240459796   Change is   -0.000005203361596
 Root      3 :     8.466536591698802   Change is   -0.000007569571989
 Root      4 :     8.466669118642633   Change is   -0.000007568187564
 Root      5 :     8.830634319565764   Change is   -0.000001406443228
 Root      6 :     8.830679443451345   Change is   -0.000001406469732
 Convergence achieved on expansion vectors.
 ***********************************************************************
 Stability analysis using <AA,BB:AA,BB> singles matrix:
 ***********************************************************************
 1PDM for each excited state written to RWF  633
 Ground to excited state transition densities written to RWF  633

 Eigenvectors of the stability matrix:
 
 Eigenvector   1:      Triplet-A1   Eigenvalue= 0.2468961  <S**2>=2.000
       5 ->  6         0.68682
       5 -> 12         0.12742
 The wavefunction is stable under the perturbations considered.
 Leave Link  914 at Fri Apr 16 23:03:04 2021, MaxMem=   104857600 cpu:            5362.3 elap:             134.7
 (Enter /s/ls4/users/knvvv/bin/g16sse/l508.exe)
 The wavefunction is already stable.
 Leave Link  508 at Fri Apr 16 23:03:04 2021, MaxMem=   104857600 cpu:               2.2 elap:               0.1
 (Enter /s/ls4/users/knvvv/bin/g16sse/l601.exe)
 Copying SCF densities to generalized density rwf, IOpCl= 0 IROHF=0.

 **********************************************************************

            Population analysis using the SCF density.

 **********************************************************************

 Orbital symmetries:
       Occupied  (A1) (A1) (E) (E) (A1)
       Virtual   (A1) (E) (E) (A1) (E) (E) (A1) (E) (E) (A1) (E)
                 (E) (A1) (E) (E) (A2) (E) (E) (E) (E) (A1) (A1)
                 (E) (E) (A1) (E) (E) (A1) (E) (E) (A1) (E) (E)
                 (A2) (A2) (E) (E) (E) (E) (A1) (E) (E) (E) (E)
                 (A1) (A1) (E) (E) (A1) (E) (E) (E) (E) (A2) (A1)
                 (E) (E) (A1) (A1) (E) (E) (A2) (E) (E) (A1) (E)
                 (E) (A1) (E) (E) (E) (E) (A1) (E) (E) (A2) (E)
                 (E) (A2) (E) (E) (A1) (E) (E) (E) (E) (A2) (A1)
                 (A1) (E) (E) (E) (E) (A1) (A1) (E) (E) (E) (E)
                 (A2) (A1) (E) (E) (A1) (E) (E) (A2) (E) (E) (A2)
                 (E) (E) (A1) (A1) (E) (E) (A1) (E) (E) (E) (E)
                 (A1) (E) (E) (A2) (A1) (E) (E) (A1) (E) (E) (A1)
                 (E) (E) (E) (E) (A2) (E) (E) (A1) (A1) (A1)
 The electronic state is 1-A1.
 Alpha  occ. eigenvalues --  -14.72529  -0.95715  -0.53285  -0.53285  -0.34080
 Alpha virt. eigenvalues --    0.04261   0.09715   0.09715   0.23067   0.24074
 Alpha virt. eigenvalues --    0.24074   0.37012   0.40130   0.40130   0.43613
 Alpha virt. eigenvalues --    0.44820   0.44820   0.70085   0.75157   0.75157
 Alpha virt. eigenvalues --    0.75746   0.89284   0.89284   0.95665   0.95665
 Alpha virt. eigenvalues --    0.97106   1.04027   1.14225   1.14225   1.20593
 Alpha virt. eigenvalues --    1.24016   1.24016   1.34149   1.65880   1.65880
 Alpha virt. eigenvalues --    1.95524   2.10087   2.10087   2.14468   2.17374
 Alpha virt. eigenvalues --    2.25483   2.25483   2.27498   2.27498   2.29377
 Alpha virt. eigenvalues --    2.36213   2.36213   2.42282   2.42282   2.53057
 Alpha virt. eigenvalues --    2.57210   2.58108   2.58108   2.78720   2.80508
 Alpha virt. eigenvalues --    2.80508   2.94955   2.94955   3.03913   3.15121
 Alpha virt. eigenvalues --    3.23321   3.23321   3.31368   3.48894   3.64522
 Alpha virt. eigenvalues --    3.64522   3.82539   4.02807   4.02807   4.15209
 Alpha virt. eigenvalues --    4.26758   4.26758   4.67244   5.03603   5.03603
 Alpha virt. eigenvalues --    5.67078   5.67078   5.82321   5.83899   5.83899
 Alpha virt. eigenvalues --    5.91077   5.93608   5.93608   6.35211   6.40825
 Alpha virt. eigenvalues --    6.40825   6.43838   6.60281   6.60281   6.81509
 Alpha virt. eigenvalues --    6.81509   6.83972   6.98142   7.10057   7.11497
 Alpha virt. eigenvalues --    7.11497   7.19541   7.19541   7.30227   7.37851
 Alpha virt. eigenvalues --    7.48276   7.48276   7.63365   7.63365   7.71351
 Alpha virt. eigenvalues --    7.77053   7.77108   7.77108   7.81081   7.86750
 Alpha virt. eigenvalues --    7.86750   7.96455   8.13853   8.13853   8.19312
 Alpha virt. eigenvalues --    8.28611   8.28611   8.34273   8.36664   8.49197
 Alpha virt. eigenvalues --    8.49197   8.82320   8.94794   8.94794   9.26126
 Alpha virt. eigenvalues --    9.26126   9.41714   9.46913   9.46913   9.67743
 Alpha virt. eigenvalues --    9.82276   9.88986   9.88986  10.82174  10.97684
 Alpha virt. eigenvalues --   10.97684  11.35657  11.43683  11.43683  11.57521
 Alpha virt. eigenvalues --   11.57521  11.71526  14.01908  14.01908  14.85674
 Alpha virt. eigenvalues --   38.22756 195.76346
          Condensed to atoms (all electrons):
               1          2          3          4
     1  N    6.684899   0.384074   0.384074   0.384074
     2  H    0.384074   0.403273  -0.033194  -0.033194
     3  H    0.384074  -0.033194   0.403273  -0.033194
     4  H    0.384074  -0.033194  -0.033194   0.403273
 Mulliken charges:
               1
     1  N   -0.837122
     2  H    0.279041
     3  H    0.279041
     4  H    0.279041
 Sum of Mulliken charges =  -0.00000
 Mulliken charges with hydrogens summed into heavy atoms:
               1
     1  N   -0.000000
 Electronic spatial extent (au):  <R**2>=             26.7624
 Charge=             -0.0000 electrons
 Dipole moment (field-independent basis, Debye):
    X=             -0.0000    Y=             -0.0000    Z=             -1.5634  Tot=              1.5634
 Quadrupole moment (field-independent basis, Debye-Ang):
   XX=             -6.2781   YY=             -6.2781   ZZ=             -9.3330
   XY=             -0.0000   XZ=              0.0000   YZ=              0.0000
 Traceless Quadrupole moment (field-independent basis, Debye-Ang):
   XX=              1.0183   YY=              1.0183   ZZ=             -2.0367
   XY=             -0.0000   XZ=              0.0000   YZ=              0.0000
 Octapole moment (field-independent basis, Debye-Ang**2):
  XXX=             -0.0000  YYY=              0.9465  ZZZ=             -1.3622  XYY=              0.0000
  XXY=             -0.9465  XXZ=             -0.8788  XZZ=              0.0000  YZZ=             -0.0000
  YYZ=             -0.8788  XYZ=              0.0000
 Hexadecapole moment (field-independent basis, Debye-Ang**3):
 XXXX=            -10.1808 YYYY=            -10.1808 ZZZZ=            -12.3470 XXXY=              0.0000
 XXXZ=              0.0000 YYYX=             -0.0000 YYYZ=             -0.3529 ZZZX=             -0.0000
 ZZZY=             -0.0000 XXYY=             -3.3936 XXZZ=             -3.8695 YYZZ=             -3.8695
 XXYZ=              0.3529 YYXZ=             -0.0000 ZZXY=              0.0000
 N-N= 1.197230726007D+01 E-N=-1.560392164650D+02  KE= 5.633860153762D+01
 PrsmSu:  requested number of processors reduced to:  21 ShMem   1 Linda.
 No NMR shielding tensors so no spin-rotation constants.
 Leave Link  601 at Fri Apr 16 23:03:08 2021, MaxMem=   104857600 cpu:             164.6 elap:               3.6
 (Enter /s/ls4/users/knvvv/bin/g16sse/l9999.exe)

 Test job not archived.
 1\1\GINC-N179\Stability\RM062X\def2QZVP\H3N1\KNVVV\16-Apr-2021\0\\#P M
 062X/Def2QZVP Integral=UltraFineGrid SCF=NoSymm Stable=(RExt, Opt) IOp
 (1/33=1)\\Database calculations.\\0,1\N,0,0.,0.,0.2822266277\H,0,0.469
 0122618,0.8123530669,-0.0940755426\H,0,0.4690122618,-0.8123530669,-0.0
 940755426\H,0,-0.9380245237,0.,-0.0940755426\\Version=ES64L-G16RevA.03
 \State=1-A1\HF=-56.5580069\RMSD=2.776e-09\Dipole=0.,0.,-0.6151058\Quad
 rupole=0.7570997,0.7570997,-1.5141995,0.,0.,0.\PG=C03V [C3(N1),3SGV(H1
 )]\\@


 IF I AM NOT FOR MYSELF, WHO WILL BE?
 BUT IF I AM ONLY FOR MYSELF, WHAT AM I?
 THOUGH A SEEKER SINCE MY BIRTH,
 HERE IS ALL I'VE LEARNED ON EARTH,
 THIS IS THE GIST OF WHAT I KNOW:
 GIVE ADVICE AND BUY A FOE.

 PRESSED FOR RULES AND VERITIES,
 ALL I RECOLLECT ARE THESE:
 FEED A COLD TO STARVE A FEVER,
 ARGUE WITH NO TRUE-BELIEVER.
 THINK-TOO-LONG IS NEVER-ACT,
 SCRATCH A MYTH AND FIND A FACT.

 STITCH IN TIME SAVES TWENTY STITCHES,
 GIVE THE RICH TO PLEASE THEM, RICHES.
 GIVE TO LOVE YOU HEARTH AND HALL,
 BUT DO NOT GIVE ADVICE AT ALL.

                                  -- HILLEL
 Job cpu time:       0 days  1 hours 55 minutes  0.2 seconds.
 Elapsed time:       0 days  0 hours  2 minutes 50.9 seconds.
 File lengths (MBytes):  RWF=     61 Int=      0 D2E=      0 Chk=      3 Scr=      1
 Normal termination of Gaussian 16 at Fri Apr 16 23:03:08 2021.
