 Entering Gaussian System, Link 0=/s/ls4/users/knvvv/bin/g16sse/g16
 Input=data/database/M062X--def2-QZVP--BH76_RKT11.gjf
 Output=data/database/M062X--def2-QZVP--BH76_RKT11.log
 Initial command:
 /s/ls4/users/knvvv/bin/g16sse/l1.exe "/s/ls4/users/knvvv/bin/scratch/Gau-48733.inp" -scrdir="/s/ls4/users/knvvv/bin/scratch/"
 Entering Link 1 = /s/ls4/users/knvvv/bin/g16sse/l1.exe PID=     48734.
  
 Copyright (c) 1988,1990,1992,1993,1995,1998,2003,2009,2016,
            Gaussian, Inc.  All Rights Reserved.
  
 This is part of the Gaussian(R) 16 program.  It is based on
 the Gaussian(R) 09 system (copyright 2009, Gaussian, Inc.),
 the Gaussian(R) 03 system (copyright 2003, Gaussian, Inc.),
 the Gaussian(R) 98 system (copyright 1998, Gaussian, Inc.),
 the Gaussian(R) 94 system (copyright 1995, Gaussian, Inc.),
 the Gaussian 92(TM) system (copyright 1992, Gaussian, Inc.),
 the Gaussian 90(TM) system (copyright 1990, Gaussian, Inc.),
 the Gaussian 88(TM) system (copyright 1988, Gaussian, Inc.),
 the Gaussian 86(TM) system (copyright 1986, Carnegie Mellon
 University), and the Gaussian 82(TM) system (copyright 1983,
 Carnegie Mellon University). Gaussian is a federally registered
 trademark of Gaussian, Inc.
  
 This software contains proprietary and confidential information,
 including trade secrets, belonging to Gaussian, Inc.
  
 This software is provided under written license and may be
 used, copied, transmitted, or stored only in accord with that
 written license.
  
 The following legend is applicable only to US Government
 contracts under FAR:
  
                    RESTRICTED RIGHTS LEGEND
  
 Use, reproduction and disclosure by the US Government is
 subject to restrictions as set forth in subparagraphs (a)
 and (c) of the Commercial Computer Software - Restricted
 Rights clause in FAR 52.227-19.
  
 Gaussian, Inc.
 340 Quinnipiac St., Bldg. 40, Wallingford CT 06492
  
  
 ---------------------------------------------------------------
 Warning -- This program may not be used in any manner that
 competes with the business of Gaussian, Inc. or will provide
 assistance to any competitor of Gaussian, Inc.  The licensee
 of this program is prohibited from giving any competitor of
 Gaussian, Inc. access to this program.  By using this program,
 the user acknowledges that Gaussian, Inc. is engaged in the
 business of creating and licensing software in the field of
 computational chemistry and represents and warrants to the
 licensee that it is not a competitor of Gaussian, Inc. and that
 it will not use this program in any manner prohibited above.
 ---------------------------------------------------------------
  

 Cite this work as:
 Gaussian 16, Revision A.03,
 M. J. Frisch, G. W. Trucks, H. B. Schlegel, G. E. Scuseria, 
 M. A. Robb, J. R. Cheeseman, G. Scalmani, V. Barone, 
 G. A. Petersson, H. Nakatsuji, X. Li, M. Caricato, A. V. Marenich, 
 J. Bloino, B. G. Janesko, R. Gomperts, B. Mennucci, H. P. Hratchian, 
 J. V. Ortiz, A. F. Izmaylov, J. L. Sonnenberg, D. Williams-Young, 
 F. Ding, F. Lipparini, F. Egidi, J. Goings, B. Peng, A. Petrone, 
 T. Henderson, D. Ranasinghe, V. G. Zakrzewski, J. Gao, N. Rega, 
 G. Zheng, W. Liang, M. Hada, M. Ehara, K. Toyota, R. Fukuda, 
 J. Hasegawa, M. Ishida, T. Nakajima, Y. Honda, O. Kitao, H. Nakai, 
 T. Vreven, K. Throssell, J. A. Montgomery, Jr., J. E. Peralta, 
 F. Ogliaro, M. J. Bearpark, J. J. Heyd, E. N. Brothers, K. N. Kudin, 
 V. N. Staroverov, T. A. Keith, R. Kobayashi, J. Normand, 
 K. Raghavachari, A. P. Rendell, J. C. Burant, S. S. Iyengar, 
 J. Tomasi, M. Cossi, J. M. Millam, M. Klene, C. Adamo, R. Cammi, 
 J. W. Ochterski, R. L. Martin, K. Morokuma, O. Farkas, 
 J. B. Foresman, and D. J. Fox, Gaussian, Inc., Wallingford CT, 2016.
 
 ******************************************
 Gaussian 16:  ES64L-G16RevA.03 25-Dec-2016
                16-Apr-2021 
 ******************************************
 %RWF=temp4_90689,70GB
 %nprocshared=48
 Will use up to   48 processors via shared memory.
 Default route: MaxDisk=80GB
 ----------------------------------------------------------------------
 #P M062X/Def2QZVP Integral=UltraFineGrid SCF=NoSymm Stable=(RExt, Opt)
  IOp(1/33=1)
 ----------------------------------------------------------------------
 1/33=1,38=1,172=1/1;
 2/12=2,17=6,18=5,40=1/2;
 3/5=45,7=101,11=2,25=1,30=1,74=-55,75=-5/1,2,3;
 4/9=2/1;
 5/5=2,38=5/2;
 6/7=2,8=2,9=2,10=2,28=1/1;
 8/6=1,10=90,11=11/1;
 9/8=-3,42=1,46=1/14;
 5/5=2,8=3,17=40,38=5/8(-2);
 6/7=2,8=2,9=2,10=2,28=1/1;
 99/5=1,9=1/99;
 Leave Link    1 at Fri Apr 16 23:03:04 2021, MaxMem=           0 cpu:              10.9 elap:               0.2
 (Enter /s/ls4/users/knvvv/bin/g16sse/l101.exe)
 ONIOM data not found on unit 2.
 ----------------------
 Database calculations.
 ----------------------
 TstMul:  ICh=     0
 TstMul:  Mul=     3
 TstMul:  ICh=     0
 TstMul:  Mul=     3
 Symbolic Z-matrix:
 Charge =  0 Multiplicity = 3
 C                     0.00029  -1.14229   0. 
 H                    -1.05596  -1.38474   0. 
 H                     0.52017  -1.40739   0.91245 
 H                     0.52017  -1.40739  -0.91245 
 H                     0.01156   0.1601    0. 
 O                     0.00029   1.36164   0. 
 
 RdStrC is calling ZToCFu for IStruc=1 NZ=     6.
 PrtBox:  NBox=     1 Levels=  1 BoxLen=    8.00 SMaxX=        5.23
          Shift=            1.995470            2.659580            1.724280
 Box      1 Number                   0 centers from      1 to      6:
 After GenITR:
 ITRead=  0  0  0  0  0  0
 MicOpt= -1 -1 -1 -1 -1 -1
 ITRead=  0  0  0  0  0  0
 MicOpt= -1 -1 -1 -1 -1 -1
 NAtoms=      6 NQM=        6 NQMF=       0 NMMI=      0 NMMIF=      0
                NMic=       0 NMicF=      0.
                    Isotopes and Nuclear Properties:
 (Nuclear quadrupole moments (NQMom) in fm**2, nuclear magnetic moments (NMagM)
  in nuclear magnetons)

  Atom         1           2           3           4           5           6
 IAtWgt=          12           1           1           1           1          16
 AtmWgt=  12.0000000   1.0078250   1.0078250   1.0078250   1.0078250  15.9949146
 NucSpn=           0           1           1           1           1           0
 AtZEff=  -0.0000000  -0.0000000  -0.0000000  -0.0000000  -0.0000000  -0.0000000
 NQMom=    0.0000000   0.0000000   0.0000000   0.0000000   0.0000000   0.0000000
 NMagM=    0.0000000   2.7928460   2.7928460   2.7928460   2.7928460   0.0000000
 AtZNuc=   6.0000000   1.0000000   1.0000000   1.0000000   1.0000000   8.0000000
 No MM parameters found.
 Leave Link  101 at Fri Apr 16 23:03:04 2021, MaxMem=   104857600 cpu:               8.5 elap:               0.2
 (Enter /s/ls4/users/knvvv/bin/g16sse/l202.exe)
                          Input orientation:                          
 ---------------------------------------------------------------------
 Center     Atomic      Atomic             Coordinates (Angstroms)
 Number     Number       Type             X           Y           Z
 ---------------------------------------------------------------------
      1          6           0        0.000290   -1.142287    0.000000
      2          1           0       -1.055957   -1.384735    0.000000
      3          1           0        0.520167   -1.407389    0.912450
      4          1           0        0.520167   -1.407389   -0.912450
      5          1           0        0.011560    0.160099    0.000000
      6          8           0        0.000290    1.361642    0.000000
 ---------------------------------------------------------------------
                    Distance matrix (angstroms):
                    1          2          3          4          5
     1  C    0.000000
     2  H    1.083716   0.000000
     3  H    1.083105   1.821331   0.000000
     4  H    1.083105   1.821331   1.824899   0.000000
     5  H    1.302435   1.877793   1.883684   1.883684   0.000000
     6  O    2.503929   2.942490   2.961481   2.961481   1.201596
                    6
     6  O    0.000000
 Stoichiometry    CH4O(3)
 Framework group  CS[SG(CH2O),X(H2)]
 Deg. of freedom     8
 Full point group                 CS      NOp   2
 Largest Abelian subgroup         CS      NOp   2
 Largest concise Abelian subgroup CS      NOp   2
                         Standard orientation:                         
 ---------------------------------------------------------------------
 Center     Atomic      Atomic             Coordinates (Angstroms)
 Number     Number       Type             X           Y           Z
 ---------------------------------------------------------------------
      1          6           0        0.000290   -1.142287    0.000000
      2          1           0       -1.055957   -1.384735    0.000000
      3          1           0        0.520168   -1.407389    0.912450
      4          1           0        0.520168   -1.407389   -0.912450
      5          1           0        0.011560    0.160099   -0.000000
      6          8           0        0.000290    1.361642   -0.000000
 ---------------------------------------------------------------------
 Rotational constants (GHZ):         150.9743578           9.6384189           9.6367890
 Leave Link  202 at Fri Apr 16 23:03:04 2021, MaxMem=   104857600 cpu:               6.8 elap:               0.2
 (Enter /s/ls4/users/knvvv/bin/g16sse/l301.exe)
 Standard basis: def2QZVP (5D, 7F)
 Ernie: Thresh=  0.10000D-02 Tol=  0.10000D-05 Strict=F.
 There are   179 symmetry adapted cartesian basis functions of A'  symmetry.
 There are   105 symmetry adapted cartesian basis functions of A"  symmetry.
 There are   144 symmetry adapted basis functions of A'  symmetry.
 There are    90 symmetry adapted basis functions of A"  symmetry.
   234 basis functions,   336 primitive gaussians,   284 cartesian basis functions
    10 alpha electrons        8 beta electrons
       nuclear repulsion energy        30.9103304171 Hartrees.
 IExCor= 4336 DFT=T Ex+Corr=M062X ExCW=0 ScaHFX=  0.540000
 ScaDFX=  1.000000  1.000000  1.000000  1.000000 ScalE2=  1.000000  1.000000
 IRadAn=      5 IRanWt=     -1 IRanGd=            0 ICorTp=0 IEmpDi=  4
 NAtoms=    6 NActive=    6 NUniq=    5 SFac= 1.44D+00 NAtFMM=   60 NAOKFM=F Big=F
 Integral buffers will be    131072 words long.
 Raffenetti 2 integral format.
 Two-electron integral symmetry is turned on.
 Leave Link  301 at Fri Apr 16 23:03:04 2021, MaxMem=   104857600 cpu:               6.2 elap:               0.2
 (Enter /s/ls4/users/knvvv/bin/g16sse/l302.exe)
 NPDir=0 NMtPBC=     1 NCelOv=     1 NCel=       1 NClECP=     1 NCelD=      1
         NCelK=      1 NCelE2=     1 NClLst=     1 CellRange=     0.0.
 One-electron integrals computed using PRISM.
 One-electron integral symmetry used in STVInt
 PrsmSu:  requested number of processors reduced to:   4 ShMem   1 Linda.
 PrsmSu:  requested number of processors reduced to:  21 ShMem   1 Linda.
   2 Symmetry operations used in ECPInt.
 ECPInt:  NShTT=    2775 NPrTT=    6207 LenC2=    2757 LenP2D=    5549.
 LDataN:  DoStor=T MaxTD1= 8 Len=  415
 Number of processors reduced to  29 by ecpmxn.
 NBasis=   234 RedAO= T EigKep=  1.40D-04  NBF=   144    90
 NBsUse=   234 1.00D-06 EigRej= -1.00D+00 NBFU=   144    90
 Precomputing XC quadrature grid using
 IXCGrd= 4 IRadAn=           5 IRanWt=          -1 IRanGd=           0 AccXCQ= 0.00D+00.
 Generated NRdTot=       0 NPtTot=           0 NUsed=           0 NTot=          32
 NSgBfM=   284   284   284   284   284 MxSgAt=     6 MxSgA2=     6.
 Leave Link  302 at Fri Apr 16 23:03:05 2021, MaxMem=   104857600 cpu:              19.0 elap:               0.5
 (Enter /s/ls4/users/knvvv/bin/g16sse/l303.exe)
 DipDrv:  MaxL=1.
 Leave Link  303 at Fri Apr 16 23:03:06 2021, MaxMem=   104857600 cpu:              44.1 elap:               1.0
 (Enter /s/ls4/users/knvvv/bin/g16sse/l401.exe)
 SCF N**3 symmetry information disabled.
 ExpMin= 7.60D-02 ExpMax= 1.17D+05 ExpMxC= 1.13D+03 IAcc=3 IRadAn=         5 AccDes= 0.00D+00
 Harris functional with IExCor= 1009 and IRadAn=       5 diagonalized for initial guess.
 HarFok:  IExCor= 1009 AccDes= 0.00D+00 IRadAn=         5 IDoV= 1 UseB2=F ITyADJ=14
 ICtDFT=  3500011 ScaDFX=  1.000000  1.000000  1.000000  1.000000
 FoFCou: FMM=F IPFlag=           0 FMFlag=      100000 FMFlg1=           0
         NFxFlg=           0 DoJE=T BraDBF=F KetDBF=T FulRan=T
         wScrn=  0.000000 ICntrl=       500 IOpCl=  0 I1Cent=   200000004 NGrid=           0
         NMat0=    1 NMatS0=      1 NMatT0=    0 NMatD0=    1 NMtDS0=    0 NMtDT0=    0
 Petite list used in FoFCou.
 CoulSu:  requested number of processors reduced to:  21 ShMem   1 Linda.
 CoulSu:  requested number of processors reduced to:  21 ShMem   1 Linda.
 CoulSu:  requested number of processors reduced to:  21 ShMem   1 Linda.
 CoulSu:  requested number of processors reduced to:  21 ShMem   1 Linda.
 Harris En= -115.471315517214    
 JPrj=0 DoOrth=F DoCkMO=F.
 Initial guess orbital symmetries:
 Alpha Orbitals:
       Occupied  (A') (A') (A') (A') (A") (A') (A') (A") (A') (A')
       Virtual   (A') (A') (A") (A') (A') (A") (A') (A') (A") (A')
                 (A') (A") (A') (A') (A") (A') (A') (A") (A') (A')
                 (A") (A") (A') (A') (A') (A") (A') (A') (A") (A')
                 (A") (A') (A') (A") (A') (A') (A") (A') (A') (A')
                 (A") (A') (A") (A') (A') (A") (A') (A') (A") (A")
                 (A') (A") (A') (A") (A') (A') (A') (A") (A") (A')
                 (A') (A") (A') (A") (A') (A') (A") (A') (A") (A')
                 (A') (A") (A') (A') (A') (A") (A") (A") (A') (A')
                 (A') (A') (A") (A") (A') (A') (A') (A") (A') (A')
                 (A") (A") (A') (A") (A') (A') (A") (A') (A") (A')
                 (A') (A") (A') (A') (A") (A') (A') (A") (A') (A')
                 (A") (A") (A') (A") (A') (A') (A") (A') (A") (A')
                 (A") (A') (A") (A") (A') (A") (A') (A") (A') (A")
                 (A') (A') (A') (A") (A') (A') (A') (A") (A") (A')
                 (A') (A') (A") (A') (A') (A") (A") (A') (A') (A")
                 (A') (A") (A") (A') (A') (A") (A') (A") (A') (A")
                 (A') (A') (A') (A') (A") (A") (A') (A') (A") (A")
                 (A') (A') (A") (A') (A") (A') (A') (A") (A") (A')
                 (A") (A') (A') (A") (A") (A') (A') (A") (A') (A")
                 (A') (A') (A") (A') (A") (A') (A') (A") (A') (A")
                 (A') (A") (A') (A") (A') (A') (A") (A') (A") (A')
                 (A") (A') (A") (A') (A') (A') (A") (A') (A') (A')
                 (A') (A') (A') (A')
 Beta  Orbitals:
       Occupied  (A') (A') (A') (A') (A") (A') (A') (A")
       Virtual   (A') (A') (A') (A') (A") (A') (A') (A") (A') (A')
                 (A") (A') (A') (A") (A') (A') (A") (A') (A') (A")
                 (A') (A') (A") (A") (A') (A') (A') (A") (A') (A')
                 (A") (A') (A") (A') (A') (A") (A') (A') (A") (A')
                 (A') (A') (A") (A') (A") (A') (A') (A") (A') (A')
                 (A") (A") (A') (A") (A') (A") (A') (A') (A') (A")
                 (A") (A') (A') (A") (A') (A") (A') (A') (A") (A')
                 (A") (A') (A') (A") (A') (A') (A') (A") (A") (A")
                 (A') (A') (A') (A') (A") (A") (A') (A') (A') (A")
                 (A') (A') (A") (A") (A') (A") (A') (A') (A") (A')
                 (A") (A') (A') (A") (A') (A') (A") (A') (A') (A")
                 (A') (A') (A") (A") (A') (A") (A') (A') (A") (A')
                 (A") (A') (A") (A') (A") (A") (A') (A") (A') (A")
                 (A') (A") (A') (A') (A') (A") (A') (A') (A') (A")
                 (A") (A') (A') (A') (A") (A') (A') (A") (A") (A')
                 (A') (A") (A') (A") (A") (A') (A') (A") (A') (A")
                 (A') (A") (A') (A') (A') (A') (A") (A") (A') (A')
                 (A") (A") (A') (A') (A") (A') (A") (A') (A') (A")
                 (A") (A') (A") (A') (A') (A") (A") (A') (A') (A")
                 (A') (A") (A') (A') (A") (A') (A") (A') (A') (A")
                 (A') (A") (A') (A") (A') (A") (A') (A') (A") (A')
                 (A") (A') (A") (A') (A") (A') (A') (A') (A") (A')
                 (A') (A') (A') (A') (A') (A')
 The electronic state of the initial guess is 3-A'.
 Initial guess <Sx>= 0.0000 <Sy>= 0.0000 <Sz>= 1.0000 <S**2>= 2.0000 S= 1.0000
 Leave Link  401 at Fri Apr 16 23:03:09 2021, MaxMem=   104857600 cpu:             147.6 elap:               3.3
 (Enter /s/ls4/users/knvvv/bin/g16sse/l502.exe)
 Integral symmetry usage will be decided dynamically.
 UHF open shell SCF:
 Using DIIS extrapolation, IDIIS=  1040.
 NGot=   104857600 LenX=   104679706 LenY=   104598609
 Requested convergence on RMS density matrix=1.00D-08 within 128 cycles.
 Requested convergence on MAX density matrix=1.00D-06.
 Requested convergence on             energy=1.00D-06.
 No special actions if energy rises.
 Fock matrices will be formed incrementally for  20 cycles.
 Integral accuracy reduced to 1.0D-05 until final iterations.

 Cycle   1  Pass 0  IDiag  1:
 FoFJK:  IHMeth= 1 ICntrl=       0 DoSepK=F KAlg= 0 I1Cent=           0 FoldK=F
 IRaf= 980000000 NMat=       1 IRICut=       1 DoRegI=T DoRafI=F ISym2E= 1 IDoP0=0 IntGTp=1.
 FoFCou: FMM=F IPFlag=           0 FMFlag=      100000 FMFlg1=           0
         NFxFlg=           0 DoJE=F BraDBF=F KetDBF=F FulRan=T
         wScrn=  0.000000 ICntrl=         0 IOpCl=  1 I1Cent=           0 NGrid=           0
         NMat0=    1 NMatS0=      1 NMatT0=    0 NMatD0=    1 NMtDS0=    0 NMtDT0=    0
 Petite list used in FoFCou.
 CoulSu:  requested number of processors reduced to:  20 ShMem   1 Linda.
 E= -115.488540531989    
 DIIS: error= 3.12D-02 at cycle   1 NSaved=   1.
 NSaved= 1 IEnMin= 1 EnMin= -115.488540531989     IErMin= 1 ErrMin= 3.12D-02
 ErrMax= 3.12D-02  0.00D+00 EMaxC= 1.00D-01 BMatC= 4.59D-01 BMatP= 4.59D-01
 IDIUse=3 WtCom= 6.88D-01 WtEn= 3.12D-01
 Coeff-Com:  0.100D+01
 Coeff-En:   0.100D+01
 Coeff:      0.100D+01
 Gap=     0.374 Goal=   None    Shift=    0.000
 Gap=     0.316 Goal=   None    Shift=    0.000
 GapD=    0.316 DampG=1.000 DampE=0.500 DampFc=0.5000 IDamp=-1.
 Damping current iteration by 5.00D-01
 RMSDP=9.85D-04 MaxDP=4.18D-02              OVMax= 1.64D-01

 Cycle   2  Pass 0  IDiag  1:
 RMSU=  4.89D-04    CP:  9.89D-01
 CoulSu:  requested number of processors reduced to:  20 ShMem   1 Linda.
 E= -115.523884717613     Delta-E=       -0.035344185623 Rises=F Damp=T
 DIIS: error= 1.38D-02 at cycle   2 NSaved=   2.
 NSaved= 2 IEnMin= 2 EnMin= -115.523884717613     IErMin= 2 ErrMin= 1.38D-02
 ErrMax= 1.38D-02  0.00D+00 EMaxC= 1.00D-01 BMatC= 6.63D-02 BMatP= 4.59D-01
 IDIUse=3 WtCom= 8.62D-01 WtEn= 1.38D-01
 Coeff-Com: -0.255D+00 0.125D+01
 Coeff-En:   0.000D+00 0.100D+01
 Coeff:     -0.220D+00 0.122D+01
 Gap=     0.403 Goal=   None    Shift=    0.000
 Gap=     0.324 Goal=   None    Shift=    0.000
 RMSDP=5.69D-04 MaxDP=5.61D-02 DE=-3.53D-02 OVMax= 1.18D-01

 Cycle   3  Pass 0  IDiag  1:
 RMSU=  5.49D-04    CP:  9.94D-01  1.30D+00
 CoulSu:  requested number of processors reduced to:  20 ShMem   1 Linda.
 E= -115.555253528937     Delta-E=       -0.031368811325 Rises=F Damp=F
 DIIS: error= 6.65D-03 at cycle   3 NSaved=   3.
 NSaved= 3 IEnMin= 3 EnMin= -115.555253528937     IErMin= 3 ErrMin= 6.65D-03
 ErrMax= 6.65D-03  0.00D+00 EMaxC= 1.00D-01 BMatC= 1.53D-02 BMatP= 6.63D-02
 IDIUse=3 WtCom= 9.33D-01 WtEn= 6.65D-02
 Coeff-Com: -0.172D+00 0.429D+00 0.743D+00
 Coeff-En:   0.000D+00 0.000D+00 0.100D+01
 Coeff:     -0.161D+00 0.400D+00 0.760D+00
 Gap=     0.402 Goal=   None    Shift=    0.000
 Gap=     0.289 Goal=   None    Shift=    0.000
 RMSDP=1.53D-04 MaxDP=7.07D-03 DE=-3.14D-02 OVMax= 3.62D-02

 Cycle   4  Pass 0  IDiag  1:
 RMSU=  1.26D-04    CP:  9.94D-01  1.41D+00  8.73D-01
 CoulSu:  requested number of processors reduced to:  20 ShMem   1 Linda.
 E= -115.558075299607     Delta-E=       -0.002821770670 Rises=F Damp=F
 DIIS: error= 3.46D-03 at cycle   4 NSaved=   4.
 NSaved= 4 IEnMin= 4 EnMin= -115.558075299607     IErMin= 4 ErrMin= 3.46D-03
 ErrMax= 3.46D-03  0.00D+00 EMaxC= 1.00D-01 BMatC= 3.12D-03 BMatP= 1.53D-02
 IDIUse=3 WtCom= 9.65D-01 WtEn= 3.46D-02
 Coeff-Com: -0.560D-01 0.988D-01 0.359D+00 0.598D+00
 Coeff-En:   0.000D+00 0.000D+00 0.176D-01 0.982D+00
 Coeff:     -0.540D-01 0.954D-01 0.347D+00 0.612D+00
 Gap=     0.394 Goal=   None    Shift=    0.000
 Gap=     0.283 Goal=   None    Shift=    0.000
 RMSDP=5.54D-05 MaxDP=3.02D-03 DE=-2.82D-03 OVMax= 1.52D-02

 Cycle   5  Pass 0  IDiag  1:
 RMSU=  3.64D-05    CP:  9.93D-01  1.42D+00  9.06D-01  7.08D-01
 CoulSu:  requested number of processors reduced to:  20 ShMem   1 Linda.
 E= -115.558659665652     Delta-E=       -0.000584366045 Rises=F Damp=F
 DIIS: error= 5.14D-04 at cycle   5 NSaved=   5.
 NSaved= 5 IEnMin= 5 EnMin= -115.558659665652     IErMin= 5 ErrMin= 5.14D-04
 ErrMax= 5.14D-04  0.00D+00 EMaxC= 1.00D-01 BMatC= 8.77D-05 BMatP= 3.12D-03
 IDIUse=3 WtCom= 9.95D-01 WtEn= 5.14D-03
 Coeff-Com:  0.344D-01-0.688D-01-0.198D+00-0.158D+00 0.139D+01
 Coeff-En:   0.000D+00 0.000D+00 0.000D+00 0.000D+00 0.100D+01
 Coeff:      0.342D-01-0.684D-01-0.197D+00-0.157D+00 0.139D+01
 Gap=     0.396 Goal=   None    Shift=    0.000
 Gap=     0.284 Goal=   None    Shift=    0.000
 RMSDP=2.47D-05 MaxDP=1.39D-03 DE=-5.84D-04 OVMax= 4.77D-03

 Cycle   6  Pass 0  IDiag  1:
 RMSU=  9.91D-06    CP:  9.93D-01  1.41D+00  9.13D-01  8.02D-01  1.52D+00
 CoulSu:  requested number of processors reduced to:  20 ShMem   1 Linda.
 E= -115.558704628339     Delta-E=       -0.000044962687 Rises=F Damp=F
 DIIS: error= 1.30D-04 at cycle   6 NSaved=   6.
 NSaved= 6 IEnMin= 6 EnMin= -115.558704628339     IErMin= 6 ErrMin= 1.30D-04
 ErrMax= 1.30D-04  0.00D+00 EMaxC= 1.00D-01 BMatC= 5.00D-06 BMatP= 8.77D-05
 IDIUse=3 WtCom= 9.99D-01 WtEn= 1.30D-03
 Coeff-Com:  0.473D-02-0.890D-02-0.402D-01-0.330D-01 0.148D+00 0.930D+00
 Coeff-En:   0.000D+00 0.000D+00 0.000D+00 0.000D+00 0.000D+00 0.100D+01
 Coeff:      0.472D-02-0.889D-02-0.402D-01-0.329D-01 0.147D+00 0.930D+00
 Gap=     0.396 Goal=   None    Shift=    0.000
 Gap=     0.285 Goal=   None    Shift=    0.000
 RMSDP=4.12D-06 MaxDP=3.28D-04 DE=-4.50D-05 OVMax= 9.06D-04

 Initial convergence to 1.0D-05 achieved.  Increase integral accuracy.
 Cycle   7  Pass 1  IDiag  1:
 CoulSu:  requested number of processors reduced to:  20 ShMem   1 Linda.
 E= -115.558715344260     Delta-E=       -0.000010715921 Rises=F Damp=F
 DIIS: error= 1.13D-04 at cycle   1 NSaved=   1.
 NSaved= 1 IEnMin= 1 EnMin= -115.558715344260     IErMin= 1 ErrMin= 1.13D-04
 ErrMax= 1.13D-04  0.00D+00 EMaxC= 1.00D-01 BMatC= 2.72D-06 BMatP= 2.72D-06
 IDIUse=3 WtCom= 9.99D-01 WtEn= 1.13D-03
 Coeff-Com:  0.100D+01
 Coeff-En:   0.100D+01
 Coeff:      0.100D+01
 Gap=     0.396 Goal=   None    Shift=    0.000
 Gap=     0.285 Goal=   None    Shift=    0.000
 RMSDP=4.12D-06 MaxDP=3.28D-04 DE=-1.07D-05 OVMax= 3.41D-04

 Cycle   8  Pass 1  IDiag  1:
 RMSU=  4.69D-06    CP:  1.00D+00
 CoulSu:  requested number of processors reduced to:  20 ShMem   1 Linda.
 E= -115.558715747815     Delta-E=       -0.000000403555 Rises=F Damp=F
 DIIS: error= 3.93D-05 at cycle   2 NSaved=   2.
 NSaved= 2 IEnMin= 2 EnMin= -115.558715747815     IErMin= 2 ErrMin= 3.93D-05
 ErrMax= 3.93D-05  0.00D+00 EMaxC= 1.00D-01 BMatC= 3.10D-07 BMatP= 2.72D-06
 IDIUse=1 WtCom= 1.00D+00 WtEn= 0.00D+00
 Coeff-Com:  0.115D+00 0.885D+00
 Coeff:      0.115D+00 0.885D+00
 Gap=     0.396 Goal=   None    Shift=    0.000
 Gap=     0.285 Goal=   None    Shift=    0.000
 RMSDP=1.10D-06 MaxDP=6.00D-05 DE=-4.04D-07 OVMax= 4.73D-04

 Cycle   9  Pass 1  IDiag  1:
 RMSU=  1.08D-06    CP:  1.00D+00  1.03D+00
 CoulSu:  requested number of processors reduced to:  20 ShMem   1 Linda.
 E= -115.558715822644     Delta-E=       -0.000000074829 Rises=F Damp=F
 DIIS: error= 3.29D-05 at cycle   3 NSaved=   3.
 NSaved= 3 IEnMin= 3 EnMin= -115.558715822644     IErMin= 3 ErrMin= 3.29D-05
 ErrMax= 3.29D-05  0.00D+00 EMaxC= 1.00D-01 BMatC= 3.05D-07 BMatP= 3.10D-07
 IDIUse=1 WtCom= 1.00D+00 WtEn= 0.00D+00
 Coeff-Com: -0.510D-01 0.501D+00 0.550D+00
 Coeff:     -0.510D-01 0.501D+00 0.550D+00
 Gap=     0.396 Goal=   None    Shift=    0.000
 Gap=     0.285 Goal=   None    Shift=    0.000
 RMSDP=5.67D-07 MaxDP=2.64D-05 DE=-7.48D-08 OVMax= 1.05D-04

 Cycle  10  Pass 1  IDiag  1:
 RMSU=  4.86D-07    CP:  1.00D+00  1.08D+00  8.16D-01
 CoulSu:  requested number of processors reduced to:  20 ShMem   1 Linda.
 E= -115.558715890872     Delta-E=       -0.000000068228 Rises=F Damp=F
 DIIS: error= 6.52D-06 at cycle   4 NSaved=   4.
 NSaved= 4 IEnMin= 4 EnMin= -115.558715890872     IErMin= 4 ErrMin= 6.52D-06
 ErrMax= 6.52D-06  0.00D+00 EMaxC= 1.00D-01 BMatC= 1.30D-08 BMatP= 3.05D-07
 IDIUse=1 WtCom= 1.00D+00 WtEn= 0.00D+00
 Coeff-Com: -0.367D-02-0.212D+00-0.273D+00 0.149D+01
 Coeff:     -0.367D-02-0.212D+00-0.273D+00 0.149D+01
 Gap=     0.396 Goal=   None    Shift=    0.000
 Gap=     0.285 Goal=   None    Shift=    0.000
 RMSDP=4.73D-07 MaxDP=2.80D-05 DE=-6.82D-08 OVMax= 1.61D-04

 Cycle  11  Pass 1  IDiag  1:
 RMSU=  1.44D-07    CP:  1.00D+00  1.10D+00  1.02D+00  1.76D+00
 CoulSu:  requested number of processors reduced to:  20 ShMem   1 Linda.
 E= -115.558715905493     Delta-E=       -0.000000014621 Rises=F Damp=F
 DIIS: error= 3.50D-06 at cycle   5 NSaved=   5.
 NSaved= 5 IEnMin= 5 EnMin= -115.558715905493     IErMin= 5 ErrMin= 3.50D-06
 ErrMax= 3.50D-06  0.00D+00 EMaxC= 1.00D-01 BMatC= 2.63D-09 BMatP= 1.30D-08
 IDIUse=1 WtCom= 1.00D+00 WtEn= 0.00D+00
 Coeff-Com:  0.950D-02-0.134D+00-0.193D+00 0.344D+00 0.974D+00
 Coeff:      0.950D-02-0.134D+00-0.193D+00 0.344D+00 0.974D+00
 Gap=     0.396 Goal=   None    Shift=    0.000
 Gap=     0.285 Goal=   None    Shift=    0.000
 RMSDP=1.75D-07 MaxDP=6.70D-06 DE=-1.46D-08 OVMax= 5.55D-05

 Cycle  12  Pass 1  IDiag  1:
 RMSU=  4.03D-08    CP:  1.00D+00  1.11D+00  1.08D+00  2.07D+00  1.09D+00
 CoulSu:  requested number of processors reduced to:  20 ShMem   1 Linda.
 E= -115.558715907097     Delta-E=       -0.000000001604 Rises=F Damp=F
 DIIS: error= 4.23D-07 at cycle   6 NSaved=   6.
 NSaved= 6 IEnMin= 6 EnMin= -115.558715907097     IErMin= 6 ErrMin= 4.23D-07
 ErrMax= 4.23D-07  0.00D+00 EMaxC= 1.00D-01 BMatC= 6.14D-11 BMatP= 2.63D-09
 IDIUse=1 WtCom= 1.00D+00 WtEn= 0.00D+00
 Coeff-Com: -0.140D-03 0.223D-01 0.255D-01-0.950D-01-0.816D-01 0.113D+01
 Coeff:     -0.140D-03 0.223D-01 0.255D-01-0.950D-01-0.816D-01 0.113D+01
 Gap=     0.396 Goal=   None    Shift=    0.000
 Gap=     0.285 Goal=   None    Shift=    0.000
 RMSDP=2.47D-08 MaxDP=1.17D-06 DE=-1.60D-09 OVMax= 5.04D-06

 Cycle  13  Pass 1  IDiag  1:
 RMSU=  1.46D-08    CP:  1.00D+00  1.11D+00  1.08D+00  2.10D+00  1.13D+00
                    CP:  1.25D+00
 CoulSu:  requested number of processors reduced to:  20 ShMem   1 Linda.
 E= -115.558715907134     Delta-E=       -0.000000000037 Rises=F Damp=F
 DIIS: error= 2.36D-07 at cycle   7 NSaved=   7.
 NSaved= 7 IEnMin= 7 EnMin= -115.558715907134     IErMin= 7 ErrMin= 2.36D-07
 ErrMax= 2.36D-07  0.00D+00 EMaxC= 1.00D-01 BMatC= 1.33D-11 BMatP= 6.14D-11
 IDIUse=1 WtCom= 1.00D+00 WtEn= 0.00D+00
 Coeff-Com: -0.982D-03 0.194D-01 0.265D-01-0.573D-01-0.122D+00 0.278D+00
 Coeff-Com:  0.857D+00
 Coeff:     -0.982D-03 0.194D-01 0.265D-01-0.573D-01-0.122D+00 0.278D+00
 Coeff:      0.857D+00
 Gap=     0.396 Goal=   None    Shift=    0.000
 Gap=     0.285 Goal=   None    Shift=    0.000
 RMSDP=6.91D-09 MaxDP=5.20D-07 DE=-3.69D-11 OVMax= 1.18D-06

 SCF Done:  E(UM062X) =  -115.558715907     A.U. after   13 cycles
            NFock= 13  Conv=0.69D-08     -V/T= 2.0035
 <Sx>= 0.0000 <Sy>= 0.0000 <Sz>= 1.0000 <S**2>= 2.0156 S= 1.0052
 <L.S>= 0.000000000000E+00
 KE= 1.151607269622D+02 PE=-3.331020795097D+02 EE= 7.147230622326D+01
 Annihilation of the first spin contaminant:
 S**2 before annihilation     2.0156,   after     2.0001
 Leave Link  502 at Fri Apr 16 23:03:39 2021, MaxMem=   104857600 cpu:            1073.2 elap:              29.5
 (Enter /s/ls4/users/knvvv/bin/g16sse/l601.exe)
 Copying SCF densities to generalized density rwf, IOpCl= 1 IROHF=0.

 **********************************************************************

            Population analysis using the SCF density.

 **********************************************************************

 Orbital symmetries:
 Alpha Orbitals:
       Occupied  (A') (A') (A') (A') (A') (A') (A") (A') (A") (A')
       Virtual   (A') (A') (A") (A') (A') (A") (A') (A') (A") (A')
                 (A') (A") (A') (A') (A") (A') (A') (A') (A") (A')
                 (A") (A') (A") (A') (A') (A") (A') (A') (A") (A')
                 (A") (A') (A') (A') (A") (A') (A") (A') (A') (A')
                 (A") (A') (A') (A") (A') (A") (A') (A') (A") (A")
                 (A') (A") (A') (A') (A") (A') (A') (A") (A') (A")
                 (A') (A") (A") (A') (A') (A') (A") (A') (A") (A')
                 (A') (A") (A') (A') (A") (A') (A") (A") (A') (A')
                 (A') (A') (A") (A") (A') (A') (A') (A") (A') (A')
                 (A") (A") (A') (A") (A') (A') (A") (A') (A") (A')
                 (A') (A") (A') (A') (A") (A') (A') (A") (A') (A')
                 (A") (A') (A") (A") (A') (A') (A") (A') (A") (A')
                 (A") (A") (A') (A") (A') (A") (A') (A") (A') (A')
                 (A") (A') (A') (A') (A") (A') (A') (A") (A") (A')
                 (A') (A') (A") (A') (A') (A") (A') (A') (A") (A")
                 (A') (A") (A") (A') (A') (A") (A') (A") (A') (A")
                 (A') (A') (A") (A') (A') (A") (A') (A') (A") (A')
                 (A') (A") (A") (A') (A") (A') (A') (A") (A') (A")
                 (A') (A") (A') (A") (A') (A") (A") (A') (A') (A')
                 (A") (A") (A') (A') (A") (A') (A') (A") (A') (A")
                 (A') (A") (A') (A') (A") (A') (A") (A') (A') (A")
                 (A') (A") (A') (A") (A') (A') (A") (A') (A') (A')
                 (A') (A') (A') (A')
 Beta  Orbitals:
       Occupied  (A') (A') (A') (A') (A") (A') (A') (A")
       Virtual   (A') (A') (A') (A') (A") (A') (A') (A") (A') (A')
                 (A') (A") (A') (A") (A') (A') (A') (A") (A') (A')
                 (A") (A') (A") (A') (A") (A') (A') (A") (A') (A')
                 (A") (A') (A') (A") (A') (A') (A") (A') (A') (A")
                 (A') (A') (A") (A') (A") (A') (A') (A") (A') (A')
                 (A") (A") (A') (A') (A") (A') (A") (A') (A') (A")
                 (A') (A") (A') (A") (A") (A') (A') (A') (A") (A')
                 (A") (A') (A') (A") (A') (A') (A") (A') (A") (A")
                 (A') (A') (A') (A') (A") (A') (A") (A') (A') (A")
                 (A') (A") (A') (A") (A') (A") (A') (A') (A") (A')
                 (A") (A') (A') (A") (A') (A') (A") (A') (A') (A")
                 (A') (A") (A') (A") (A') (A") (A') (A') (A") (A')
                 (A") (A') (A") (A") (A') (A") (A') (A") (A') (A")
                 (A') (A') (A") (A') (A') (A') (A") (A') (A") (A')
                 (A") (A') (A') (A') (A") (A') (A') (A") (A") (A')
                 (A') (A") (A") (A') (A") (A') (A') (A") (A') (A")
                 (A') (A") (A') (A') (A") (A') (A") (A') (A') (A")
                 (A') (A') (A") (A') (A") (A') (A") (A') (A') (A")
                 (A") (A') (A") (A') (A") (A') (A") (A') (A") (A')
                 (A') (A') (A") (A') (A") (A') (A") (A') (A') (A")
                 (A') (A") (A") (A') (A') (A') (A") (A') (A') (A")
                 (A") (A') (A") (A') (A") (A') (A') (A") (A') (A')
                 (A') (A') (A') (A') (A') (A')
 The electronic state is 3-A'.
 Alpha  occ. eigenvalues --  -19.70271 -10.56767  -1.11837  -0.81763  -0.57387
 Alpha  occ. eigenvalues --   -0.51165  -0.50492  -0.49344  -0.43693  -0.35024
 Alpha virt. eigenvalues --    0.04564   0.10524   0.10544   0.14398   0.14591
 Alpha virt. eigenvalues --    0.14644   0.16775   0.30785   0.31028   0.32290
 Alpha virt. eigenvalues --    0.34257   0.34380   0.35114   0.38298   0.43830
 Alpha virt. eigenvalues --    0.43851   0.49675   0.63737   0.63768   0.65838
 Alpha virt. eigenvalues --    0.67772   0.69939   0.70517   0.71812   0.73493
 Alpha virt. eigenvalues --    0.73626   0.82634   0.96006   0.96566   1.01019
 Alpha virt. eigenvalues --    1.01118   1.01317   1.03230   1.03780   1.04524
 Alpha virt. eigenvalues --    1.10071   1.14726   1.14804   1.25096   1.32827
 Alpha virt. eigenvalues --    1.35192   1.40481   1.41606   1.41952   1.59404
 Alpha virt. eigenvalues --    1.61185   1.68325   1.73127   1.73161   1.79528
 Alpha virt. eigenvalues --    1.80870   1.87820   1.87827   1.95813   1.95890
 Alpha virt. eigenvalues --    1.97336   2.02541   2.06869   2.10814   2.10976
 Alpha virt. eigenvalues --    2.12123   2.12331   2.29488   2.30110   2.32221
 Alpha virt. eigenvalues --    2.39476   2.40153   2.47681   2.52087   2.52262
 Alpha virt. eigenvalues --    2.65131   2.65181   2.68340   2.74861   2.75711
 Alpha virt. eigenvalues --    2.77231   2.78763   2.84567   2.84580   2.86468
 Alpha virt. eigenvalues --    2.90239   3.02405   3.02944   3.11120   3.11290
 Alpha virt. eigenvalues --    3.13289   3.15653   3.15974   3.36707   3.39971
 Alpha virt. eigenvalues --    3.40080   3.40802   3.49248   3.63334   3.63803
 Alpha virt. eigenvalues --    3.73041   3.73342   3.74867   3.81417   3.81649
 Alpha virt. eigenvalues --    3.96994   3.98230   4.04649   4.16533   4.19627
 Alpha virt. eigenvalues --    4.30481   4.32814   4.34743   4.84182   5.01352
 Alpha virt. eigenvalues --    5.04094   5.07417   5.09898   5.23317   5.31831
 Alpha virt. eigenvalues --    5.48405   5.48742   5.52711   5.61213   5.61759
 Alpha virt. eigenvalues --    5.67326   5.70070   5.70128   5.73783   5.74544
 Alpha virt. eigenvalues --    5.87053   5.90352   5.91276   5.95070   6.00619
 Alpha virt. eigenvalues --    6.00842   6.10700   6.16057   6.19201   6.19886
 Alpha virt. eigenvalues --    6.38210   6.46480   6.46549   6.56046   6.56219
 Alpha virt. eigenvalues --    6.67789   6.74089   6.75075   6.82163   7.01565
 Alpha virt. eigenvalues --    7.01955   7.03756   7.05351   7.05629   7.10385
 Alpha virt. eigenvalues --    7.26438   7.26898   7.35405   7.35537   7.42252
 Alpha virt. eigenvalues --    7.43020   7.47035   7.47297   7.49767   7.59260
 Alpha virt. eigenvalues --    7.64272   7.87312   7.97736   7.98087   7.99879
 Alpha virt. eigenvalues --    8.00776   8.02949   8.07515   8.07683   8.08815
 Alpha virt. eigenvalues --    8.12014   8.12349   8.14895   8.14972   8.22030
 Alpha virt. eigenvalues --    8.23496   8.31262   8.31688   8.63548   8.64326
 Alpha virt. eigenvalues --    8.74743   8.74771   8.77459   8.78471   8.90223
 Alpha virt. eigenvalues --    8.90435   8.95736   8.95829   9.12195   9.27148
 Alpha virt. eigenvalues --    9.27348   9.37495   9.37576   9.62123   9.69807
 Alpha virt. eigenvalues --    9.69991   9.80731  10.13161  10.13254  10.21372
 Alpha virt. eigenvalues --   10.48506  10.53209  10.58892  10.72241  10.72315
 Alpha virt. eigenvalues --   10.75221  10.86763  10.87276  11.18850  11.20630
 Alpha virt. eigenvalues --   11.48160  11.51699  11.74078  11.74305  11.94546
 Alpha virt. eigenvalues --   12.32883  12.39285  12.93483  13.58617  14.38228
 Alpha virt. eigenvalues --   28.89531  47.63865 146.43429 250.66566
  Beta  occ. eigenvalues --  -19.67467 -10.56240  -0.98828  -0.78893  -0.49443
  Beta  occ. eigenvalues --   -0.49335  -0.46743  -0.38069
  Beta virt. eigenvalues --   -0.09570  -0.08747   0.04312   0.10514   0.10581
  Beta virt. eigenvalues --    0.12602   0.14575   0.14773   0.15871   0.30351
  Beta virt. eigenvalues --    0.31046   0.31580   0.35075   0.35183   0.35945
  Beta virt. eigenvalues --    0.40467   0.43120   0.44238   0.50245   0.63985
  Beta virt. eigenvalues --    0.64001   0.66483   0.67584   0.70076   0.70257
  Beta virt. eigenvalues --    0.72359   0.73183   0.73346   0.82126   0.96420
  Beta virt. eigenvalues --    0.96977   0.98921   1.00698   1.00778   1.02960
  Beta virt. eigenvalues --    1.04288   1.05267   1.09213   1.15312   1.15351
  Beta virt. eigenvalues --    1.26214   1.35292   1.35877   1.42508   1.42878
  Beta virt. eigenvalues --    1.43159   1.59914   1.61719   1.70565   1.73891
  Beta virt. eigenvalues --    1.74012   1.79816   1.82755   1.88687   1.88801
  Beta virt. eigenvalues --    1.96348   1.96404   1.97823   2.04118   2.07008
  Beta virt. eigenvalues --    2.10035   2.10741   2.12591   2.12807   2.29193
  Beta virt. eigenvalues --    2.29579   2.31434   2.38733   2.40185   2.47921
  Beta virt. eigenvalues --    2.52437   2.52578   2.64929   2.65059   2.68477
  Beta virt. eigenvalues --    2.74609   2.75538   2.78505   2.79387   2.84631
  Beta virt. eigenvalues --    2.84685   2.85955   2.90055   3.02729   3.03363
  Beta virt. eigenvalues --    3.11243   3.11882   3.14617   3.17001   3.17392
  Beta virt. eigenvalues --    3.38134   3.40035   3.41149   3.41570   3.53190
  Beta virt. eigenvalues --    3.64323   3.65021   3.75434   3.75599   3.76381
  Beta virt. eigenvalues --    3.84054   3.84502   3.99127   4.00353   4.06751
  Beta virt. eigenvalues --    4.19922   4.22006   4.33328   4.34256   4.35418
  Beta virt. eigenvalues --    4.86715   5.07119   5.07641   5.12535   5.13582
  Beta virt. eigenvalues --    5.27318   5.34008   5.52893   5.53055   5.55390
  Beta virt. eigenvalues --    5.64344   5.64792   5.67506   5.70140   5.72617
  Beta virt. eigenvalues --    5.76607   5.77501   5.87170   5.93584   5.94299
  Beta virt. eigenvalues --    5.99399   6.07378   6.07673   6.11805   6.21729
  Beta virt. eigenvalues --    6.22351   6.22850   6.42198   6.49554   6.49566
  Beta virt. eigenvalues --    6.62819   6.63183   6.70803   6.75920   6.76801
  Beta virt. eigenvalues --    6.86239   7.03291   7.03331   7.05608   7.06112
  Beta virt. eigenvalues --    7.09082   7.12528   7.22267   7.22570   7.36105
  Beta virt. eigenvalues --    7.36472   7.42148   7.42711   7.49057   7.49257
  Beta virt. eigenvalues --    7.52000   7.59744   7.61495   7.87490   7.95309
  Beta virt. eigenvalues --    7.95851   7.97376   7.97649   8.03845   8.09267
  Beta virt. eigenvalues --    8.09310   8.11139   8.11214   8.14530   8.17867
  Beta virt. eigenvalues --    8.18347   8.23858   8.25180   8.32751   8.32788
  Beta virt. eigenvalues --    8.66298   8.66837   8.76473   8.78240   8.80976
  Beta virt. eigenvalues --    8.82639   8.90264   8.90724   8.97046   8.97392
  Beta virt. eigenvalues --    9.16552   9.29032   9.30427   9.39683   9.40505
  Beta virt. eigenvalues --    9.65340   9.74677   9.75159   9.84808  10.18627
  Beta virt. eigenvalues --   10.18900  10.25567  10.54554  10.57282  10.61203
  Beta virt. eigenvalues --   10.84588  10.85554  10.87705  11.00235  11.04408
  Beta virt. eigenvalues --   11.29132  11.31840  11.59457  11.66721  11.90486
  Beta virt. eigenvalues --   11.93028  12.06030  12.46780  12.57832  13.06760
  Beta virt. eigenvalues --   13.71992  14.47775  29.04100  47.77859 146.46273
  Beta virt. eigenvalues --  250.64349
          Condensed to atoms (all electrons):
               1          2          3          4          5          6
     1  C    5.455198   0.355072   0.358081   0.358081   0.271905  -0.060933
     2  H    0.355072   0.475579  -0.024823  -0.024823  -0.007816   0.000322
     3  H    0.358081  -0.024823   0.471653  -0.027676  -0.008720  -0.000867
     4  H    0.358081  -0.024823  -0.027676   0.471653  -0.008720  -0.000867
     5  H    0.271905  -0.007816  -0.008720  -0.008720   0.318915   0.154103
     6  O   -0.060933   0.000322  -0.000867  -0.000867   0.154103   8.142364
          Atomic-Atomic Spin Densities.
               1          2          3          4          5          6
     1  C    0.608298  -0.001544  -0.006162  -0.006162   0.075916  -0.098589
     2  H   -0.001544  -0.027380   0.006552   0.006552  -0.003257   0.003413
     3  H   -0.006162   0.006552  -0.025917   0.010600  -0.002444   0.004370
     4  H   -0.006162   0.006552   0.010600  -0.025917  -0.002444   0.004370
     5  H    0.075916  -0.003257  -0.002444  -0.002444  -0.030173  -0.017980
     6  O   -0.098589   0.003413   0.004370   0.004370  -0.017980   1.554709
 Mulliken charges and spin densities:
               1          2
     1  C   -0.737405   0.571758
     2  H    0.226490  -0.015664
     3  H    0.232352  -0.013001
     4  H    0.232352  -0.013001
     5  H    0.280334   0.019617
     6  O   -0.234122   1.450292
 Sum of Mulliken charges =  -0.00000   2.00000
 Mulliken charges and spin densities with hydrogens summed into heavy atoms:
               1          2
     1  C   -0.046212   0.530091
     6  O    0.046212   1.469909
 Electronic spatial extent (au):  <R**2>=            145.0769
 Charge=             -0.0000 electrons
 Dipole moment (field-independent basis, Debye):
    X=              0.0025    Y=             -2.0044    Z=             -0.0000  Tot=              2.0044
 Quadrupole moment (field-independent basis, Debye-Ang):
   XX=            -12.7232   YY=            -15.2614   ZZ=            -13.9864
   XY=              0.0067   XZ=             -0.0000   YZ=             -0.0000
 Traceless Quadrupole moment (field-independent basis, Debye-Ang):
   XX=              1.2671   YY=             -1.2711   ZZ=              0.0040
   XY=              0.0067   XZ=             -0.0000   YZ=             -0.0000
 Octapole moment (field-independent basis, Debye-Ang**2):
  XXX=             -0.8679  YYY=              2.4837  ZZZ=              0.0000  XYY=              0.0402
  XXY=              1.3952  XXZ=              0.0000  XZZ=              0.8595  YZZ=             -0.3905
  YYZ=             -0.0000  XYZ=              0.0000
 Hexadecapole moment (field-independent basis, Debye-Ang**3):
 XXXX=            -18.3394 YYYY=           -149.3649 ZZZZ=            -20.3671 XXXY=              1.3184
 XXXZ=             -0.0000 YYYX=             -0.0542 YYYZ=              0.0000 ZZZX=              0.0000
 ZZZY=             -0.0000 XXYY=            -24.8779 XXZZ=             -6.4721 YYZZ=            -27.4217
 XXYZ=             -0.0000 YYXZ=             -0.0000 ZZXY=             -1.3119
 N-N= 3.091033041713D+01 E-N=-3.331020918228D+02  KE= 1.151607269622D+02
                          Isotropic Fermi Contact Couplings
        Atom                 a.u.       MegaHertz       Gauss      10(-4) cm-1
     1  C(13)              0.18500     103.98648      37.10496      34.68616
     2  H(1)              -0.00497     -11.11353      -3.96558      -3.70707
     3  H(1)              -0.00581     -12.99529      -4.63704      -4.33476
     4  H(1)              -0.00581     -12.99529      -4.63704      -4.33476
     5  H(1)              -0.04410     -98.56267     -35.16961     -32.87697
     6  O(17)              0.18499     -56.06968     -20.00706     -18.70283
 PrsmSu:  requested number of processors reduced to:  21 ShMem   1 Linda.
 --------------------------------------------------------
       Center         ----  Spin Dipole Couplings  ----
                      3XX-RR        3YY-RR        3ZZ-RR
 --------------------------------------------------------
     1   Atom       -0.358014      0.722511     -0.364497
     2   Atom        0.043750      0.007321     -0.051071
     3   Atom       -0.027359      0.007204      0.020155
     4   Atom       -0.027359      0.007204      0.020155
     5   Atom       -0.166687      0.374329     -0.207642
     6   Atom        2.703627      0.362930     -3.066557
 --------------------------------------------------------
                        XY            XZ            YZ
 --------------------------------------------------------
     1   Atom        0.013458      0.000000     -0.000000
     2   Atom        0.019986      0.000000      0.000000
     3   Atom       -0.009707      0.040105     -0.018551
     4   Atom       -0.009707     -0.040105      0.018551
     5   Atom       -0.001958      0.000000      0.000000
     6   Atom        0.024501      0.000000      0.000000
 --------------------------------------------------------


 ---------------------------------------------------------------------------------
              Anisotropic Spin Dipole Couplings in Principal Axis System
 ---------------------------------------------------------------------------------

       Atom             a.u.   MegaHertz   Gauss  10(-4) cm-1        Axes

              Baa    -0.3645   -48.912   -17.453   -16.315  0.0000  0.0000  1.0000
     1 C(13)  Bbb    -0.3582   -48.065   -17.151   -16.033  0.9999 -0.0125  0.0000
              Bcc     0.7227    96.977    34.604    32.348  0.0125  0.9999 -0.0000
 
              Baa    -0.0511   -27.249    -9.723    -9.089  0.0000  0.0000  1.0000
     2 H(1)   Bbb    -0.0015    -0.803    -0.287    -0.268 -0.4040  0.9148 -0.0000
              Bcc     0.0526    28.052    10.010     9.357  0.9148  0.4040 -0.0000
 
              Baa    -0.0502   -26.798    -9.562    -8.939  0.8671 -0.0143 -0.4979
     3 H(1)   Bbb    -0.0024    -1.291    -0.461    -0.431  0.2195  0.9082  0.3563
              Bcc     0.0526    28.090    10.023     9.370  0.4471 -0.4183  0.7907
 
              Baa    -0.0502   -26.798    -9.562    -8.939  0.8671 -0.0143  0.4979
     4 H(1)   Bbb    -0.0024    -1.291    -0.461    -0.431  0.2195  0.9082 -0.3563
              Bcc     0.0526    28.090    10.023     9.370 -0.4471  0.4183  0.7907
 
              Baa    -0.2076  -110.788   -39.532   -36.955  0.0000  0.0000  1.0000
     5 H(1)   Bbb    -0.1667   -88.940   -31.736   -29.667  1.0000  0.0036 -0.0000
              Bcc     0.3743   199.728    71.268    66.622 -0.0036  1.0000 -0.0000
 
              Baa    -3.0666   221.894    79.177    74.016  0.0000  0.0000  1.0000
     6 O(17)  Bbb     0.3627   -26.243    -9.364    -8.754 -0.0105  0.9999 -0.0000
              Bcc     2.7039  -195.651   -69.813   -65.262  0.9999  0.0105 -0.0000
 

 ---------------------------------------------------------------------------------

 PrsmSu:  requested number of processors reduced to:  21 ShMem   1 Linda.
 No NMR shielding tensors so no spin-rotation constants.
 Leave Link  601 at Fri Apr 16 23:03:43 2021, MaxMem=   104857600 cpu:             217.1 elap:               4.8
 (Enter /s/ls4/users/knvvv/bin/g16sse/l801.exe)
 DoSCS=F DFT=T ScalE2(SS,OS)=  1.000000  1.000000
 Range of M.O.s used for correlation:     1   234
 NBasis=   234 NAE=    10 NBE=     8 NFC=     0 NFV=     0
 NROrb=    234 NOA=    10 NOB=     8 NVA=   224 NVB=   226

 **** Warning!!: The largest alpha MO coefficient is  0.35021601D+02


 **** Warning!!: The largest beta MO coefficient is  0.35424151D+02

 Leave Link  801 at Fri Apr 16 23:03:44 2021, MaxMem=   104857600 cpu:               3.6 elap:               0.1
 (Enter /s/ls4/users/knvvv/bin/g16sse/l914.exe)
 UHF ground state
 Doing stability rather than CIS.
 Two-electron integrals replicated using symmetry.
 MDV=   104857600 DFT=T DoStab=T Mixed=T DoRPA=F DoScal=F NonHer=F
 Making orbital integer symmetry assigments:
 Orbital symmetries:
 Alpha Orbitals:
       Occupied  (A') (A') (A') (A') (A') (A') (A") (A') (A") (A')
       Virtual   (A') (A') (A") (A') (A') (A") (A') (A') (A") (A')
                 (A') (A") (A') (A') (A") (A') (A') (A') (A") (A')
                 (A") (A') (A") (A') (A') (A") (A') (A') (A") (A')
                 (A") (A') (A') (A') (A") (A') (A") (A') (A') (A')
                 (A") (A') (A') (A") (A') (A") (A') (A') (A") (A")
                 (A') (A") (A') (A') (A") (A') (A') (A") (A') (A")
                 (A') (A") (A") (A') (A') (A') (A") (A') (A") (A')
                 (A') (A") (A') (A') (A") (A') (A") (A") (A') (A')
                 (A') (A') (A") (A") (A') (A') (A') (A") (A') (A')
                 (A") (A") (A') (A") (A') (A') (A") (A') (A") (A')
                 (A') (A") (A') (A') (A") (A') (A') (A") (A') (A')
                 (A") (A') (A") (A") (A') (A') (A") (A') (A") (A')
                 (A") (A") (A') (A") (A') (A") (A') (A") (A') (A')
                 (A") (A') (A') (A') (A") (A') (A') (A") (A") (A')
                 (A') (A') (A") (A') (A') (A") (A') (A') (A") (A")
                 (A') (A") (A") (A') (A') (A") (A') (A") (A') (A")
                 (A') (A') (A") (A') (A') (A") (A') (A') (A") (A')
                 (A') (A") (A") (A') (A") (A') (A') (A") (A') (A")
                 (A') (A") (A') (A") (A') (A") (A") (A') (A') (A')
                 (A") (A") (A') (A') (A") (A') (A') (A") (A') (A")
                 (A') (A") (A') (A') (A") (A') (A") (A') (A') (A")
                 (A') (A") (A') (A") (A') (A') (A") (A') (A') (A')
                 (A') (A') (A') (A')
 Beta  Orbitals:
       Occupied  (A') (A') (A') (A') (A") (A') (A') (A")
       Virtual   (A') (A') (A') (A') (A") (A') (A') (A") (A') (A')
                 (A') (A") (A') (A") (A') (A') (A') (A") (A') (A')
                 (A") (A') (A") (A') (A") (A') (A') (A") (A') (A')
                 (A") (A') (A') (A") (A') (A') (A") (A') (A') (A")
                 (A') (A') (A") (A') (A") (A') (A') (A") (A') (A')
                 (A") (A") (A') (A') (A") (A') (A") (A') (A') (A")
                 (A') (A") (A') (A") (A") (A') (A') (A') (A") (A')
                 (A") (A') (A') (A") (A') (A') (A") (A') (A") (A")
                 (A') (A') (A') (A') (A") (A') (A") (A') (A') (A")
                 (A') (A") (A') (A") (A') (A") (A') (A') (A") (A')
                 (A") (A') (A') (A") (A') (A') (A") (A') (A') (A")
                 (A') (A") (A') (A") (A') (A") (A') (A') (A") (A')
                 (A") (A') (A") (A") (A') (A") (A') (A") (A') (A")
                 (A') (A') (A") (A') (A') (A') (A") (A') (A") (A')
                 (A") (A') (A') (A') (A") (A') (A') (A") (A") (A')
                 (A') (A") (A") (A') (A") (A') (A') (A") (A') (A")
                 (A') (A") (A') (A') (A") (A') (A") (A') (A') (A")
                 (A') (A') (A") (A') (A") (A') (A") (A') (A') (A")
                 (A") (A') (A") (A') (A") (A') (A") (A') (A") (A')
                 (A') (A') (A") (A') (A") (A') (A") (A') (A') (A")
                 (A') (A") (A") (A') (A') (A') (A") (A') (A') (A")
                 (A") (A') (A") (A') (A") (A') (A') (A") (A') (A')
                 (A') (A') (A') (A') (A') (A')
    12 initial guesses have been made.
 Convergence on wavefunction:    0.001000000000000
 Davidson Disk Diagonalization:  ConvIn= 1.00D-03 SkipCon=T Conv= 1.00D-03.
 Max sub-space:  2000 roots to seek:    12 dimension of matrix:         4048
 Iteration     1 Dimension    12 NMult     0 NNew     12
 Estimated number of processors is:   19
 CISAX will form     1 AO SS matrices at one time.
 NMat=     1 NSing=     1 JSym2X= 2.
 FoFJK:  IHMeth= 1 ICntrl=       0 DoSepK=F KAlg= 0 I1Cent=           0 FoldK=F
 IRaf= 980000000 NMat=       1 IRICut=       1 DoRegI=T DoRafI=F ISym2E= 2 IDoP0=0 IntGTp=1.
 FoFCou: FMM=F IPFlag=           0 FMFlag=      100000 FMFlg1=           0
         NFxFlg=           0 DoJE=F BraDBF=F KetDBF=F FulRan=T
         wScrn=  0.000000 ICntrl=         0 IOpCl=  1 I1Cent=           0 NGrid=           0
         NMat0=    1 NMatS0=      1 NMatT0=    0 NMatD0=    1 NMtDS0=    0 NMtDT0=    0
 Integrals replicated using symmetry in FoFCou.
 CoulSu:  requested number of processors reduced to:  18 ShMem   1 Linda.
 NMat=     1 NSing=     1 JSym2X= 2.
 CoulSu:  requested number of processors reduced to:  18 ShMem   1 Linda.
 NMat=     1 NSing=     1 JSym2X= 2.
 CoulSu:  requested number of processors reduced to:  18 ShMem   1 Linda.
 NMat=     1 NSing=     1 JSym2X= 2.
 CoulSu:  requested number of processors reduced to:  18 ShMem   1 Linda.
 NMat=     1 NSing=     1 JSym2X= 2.
 CoulSu:  requested number of processors reduced to:  18 ShMem   1 Linda.
 NMat=     1 NSing=     1 JSym2X= 2.
 CoulSu:  requested number of processors reduced to:  18 ShMem   1 Linda.
 NMat=     1 NSing=     1 JSym2X= 2.
 CoulSu:  requested number of processors reduced to:  18 ShMem   1 Linda.
 NMat=     1 NSing=     1 JSym2X= 2.
 CoulSu:  requested number of processors reduced to:  18 ShMem   1 Linda.
 NMat=     1 NSing=     1 JSym2X= 2.
 CoulSu:  requested number of processors reduced to:  18 ShMem   1 Linda.
 NMat=     1 NSing=     1 JSym2X= 2.
 CoulSu:  requested number of processors reduced to:  18 ShMem   1 Linda.
 NMat=     1 NSing=     1 JSym2X= 2.
 CoulSu:  requested number of processors reduced to:  18 ShMem   1 Linda.
 NMat=     1 NSing=     1 JSym2X= 2.
 CoulSu:  requested number of processors reduced to:  18 ShMem   1 Linda.
 New state      1 was old state      2
 Excitation Energies [eV] at current iteration:
 Root      1 :     0.692895468616438
 Root      2 :     2.434937651853599
 Root      3 :     4.926575565500383
 Root      4 :     6.828593273662529
 Root      5 :     6.831004499857188
 Root      6 :     8.049169217637028
 Root      7 :     8.172290532266228
 Root      8 :     8.274498782753794
 Root      9 :     9.322280535331071
 Root     10 :     9.708578836773048
 Root     11 :     9.722541044704476
 Root     12 :     9.955343572577977
 Iteration     2 Dimension    24 NMult    12 NNew     12
 Estimated number of processors is:   19
 CISAX will form     1 AO SS matrices at one time.
 NMat=     1 NSing=     1 JSym2X= 2.
 CoulSu:  requested number of processors reduced to:  18 ShMem   1 Linda.
 NMat=     1 NSing=     1 JSym2X= 2.
 CoulSu:  requested number of processors reduced to:  18 ShMem   1 Linda.
 NMat=     1 NSing=     1 JSym2X= 2.
 CoulSu:  requested number of processors reduced to:  18 ShMem   1 Linda.
 NMat=     1 NSing=     1 JSym2X= 2.
 CoulSu:  requested number of processors reduced to:  18 ShMem   1 Linda.
 NMat=     1 NSing=     1 JSym2X= 2.
 CoulSu:  requested number of processors reduced to:  18 ShMem   1 Linda.
 NMat=     1 NSing=     1 JSym2X= 2.
 CoulSu:  requested number of processors reduced to:  18 ShMem   1 Linda.
 NMat=     1 NSing=     1 JSym2X= 2.
 CoulSu:  requested number of processors reduced to:  18 ShMem   1 Linda.
 NMat=     1 NSing=     1 JSym2X= 2.
 CoulSu:  requested number of processors reduced to:  18 ShMem   1 Linda.
 NMat=     1 NSing=     1 JSym2X= 2.
 CoulSu:  requested number of processors reduced to:  18 ShMem   1 Linda.
 NMat=     1 NSing=     1 JSym2X= 2.
 CoulSu:  requested number of processors reduced to:  18 ShMem   1 Linda.
 NMat=     1 NSing=     1 JSym2X= 2.
 CoulSu:  requested number of processors reduced to:  18 ShMem   1 Linda.
 NMat=     1 NSing=     1 JSym2X= 2.
 CoulSu:  requested number of processors reduced to:  18 ShMem   1 Linda.
 Root      1 not converged, maximum delta is    0.155500655290651
 Excitation Energies [eV] at current iteration:
 Root      1 :     0.009235873222238   Change is   -0.683659595394200
 Root      2 :     1.929605634948316   Change is   -0.505332016905283
 Root      3 :     4.455144470944682   Change is   -0.471431094555701
 Root      4 :     6.202973643160832   Change is   -3.752369929417144
 Root      5 :     6.591010992191861   Change is   -0.237582281470668
 Root      6 :     6.597340814665935   Change is   -0.233663685191253
 Root      7 :     7.867789143319579   Change is   -0.181380074317449
 Root      8 :     8.250073836766664   Change is   -0.024424945987130
 Root      9 :     8.279014751333252   Change is    0.106724219067025
 Root     10 :     9.162768840526194   Change is   -0.159511694804877
 Root     11 :     9.489217080440030   Change is   -0.219361756333019
 Root     12 :     9.498568517019310   Change is   -0.223972527685166
 Iteration     3 Dimension    27 NMult    24 NNew      3
 Estimated number of processors is:   19
 CISAX will form     1 AO SS matrices at one time.
 NMat=     1 NSing=     1 JSym2X= 2.
 CoulSu:  requested number of processors reduced to:  18 ShMem   1 Linda.
 NMat=     1 NSing=     1 JSym2X= 2.
 CoulSu:  requested number of processors reduced to:  18 ShMem   1 Linda.
 NMat=     1 NSing=     1 JSym2X= 2.
 CoulSu:  requested number of processors reduced to:  18 ShMem   1 Linda.
 Root      1 not converged, maximum delta is    0.006531216817003
 Excitation Energies [eV] at current iteration:
 Root      1 :     0.000077805864764   Change is   -0.009158067357474
 Root      2 :     1.918789898852903   Change is   -0.010815736095413
 Root      3 :     4.417149112645629   Change is   -0.037995358299053
 Iteration     4 Dimension    30 NMult    27 NNew      3
 Estimated number of processors is:   19
 CISAX will form     1 AO SS matrices at one time.
 NMat=     1 NSing=     1 JSym2X= 2.
 CoulSu:  requested number of processors reduced to:  18 ShMem   1 Linda.
 NMat=     1 NSing=     1 JSym2X= 2.
 CoulSu:  requested number of processors reduced to:  18 ShMem   1 Linda.
 NMat=     1 NSing=     1 JSym2X= 2.
 CoulSu:  requested number of processors reduced to:  18 ShMem   1 Linda.
 Root      1 has converged.
 Excitation Energies [eV] at current iteration:
 Root      1 :    -0.000043685865275   Change is   -0.000121491730039
 Root      2 :     1.918405979854704   Change is   -0.000383918998199
 Root      3 :     4.410655711825254   Change is   -0.006493400820375
 Convergence achieved on expansion vectors.
 ***********************************************************************
 Stability analysis using <AA,BB:AA,BB> singles matrix:
 ***********************************************************************
 1PDM for each excited state written to RWF  633
 Ground to excited state transition densities written to RWF  633

 Eigenvectors of the stability matrix:
 
 Eigenvector   1:  3.012-A"   Eigenvalue=-0.0000016  <S**2>=2.018
      8B -> 10B        0.97673
      8B -> 18B        0.16147
 The wavefunction is stable under the perturbations considered.
 Leave Link  914 at Fri Apr 16 23:06:42 2021, MaxMem=   104857600 cpu:            6870.7 elap:             178.4
 (Enter /s/ls4/users/knvvv/bin/g16sse/l508.exe)
 The wavefunction is already stable.
 Leave Link  508 at Fri Apr 16 23:06:42 2021, MaxMem=   104857600 cpu:               2.2 elap:               0.1
 (Enter /s/ls4/users/knvvv/bin/g16sse/l601.exe)
 Copying SCF densities to generalized density rwf, IOpCl= 1 IROHF=0.

 **********************************************************************

            Population analysis using the SCF density.

 **********************************************************************

 Orbital symmetries:
 Alpha Orbitals:
       Occupied  (A') (A') (A') (A') (A') (A') (A") (A') (A") (A')
       Virtual   (A') (A') (A") (A') (A') (A") (A') (A') (A") (A')
                 (A') (A") (A') (A') (A") (A') (A') (A') (A") (A')
                 (A") (A') (A") (A') (A') (A") (A') (A') (A") (A')
                 (A") (A') (A') (A') (A") (A') (A") (A') (A') (A')
                 (A") (A') (A') (A") (A') (A") (A') (A') (A") (A")
                 (A') (A") (A') (A') (A") (A') (A') (A") (A') (A")
                 (A') (A") (A") (A') (A') (A') (A") (A') (A") (A')
                 (A') (A") (A') (A') (A") (A') (A") (A") (A') (A')
                 (A') (A') (A") (A") (A') (A') (A') (A") (A') (A')
                 (A") (A") (A') (A") (A') (A') (A") (A') (A") (A')
                 (A') (A") (A') (A') (A") (A') (A') (A") (A') (A')
                 (A") (A') (A") (A") (A') (A') (A") (A') (A") (A')
                 (A") (A") (A') (A") (A') (A") (A') (A") (A') (A')
                 (A") (A') (A') (A') (A") (A') (A') (A") (A") (A')
                 (A') (A') (A") (A') (A') (A") (A') (A') (A") (A")
                 (A') (A") (A") (A') (A') (A") (A') (A") (A') (A")
                 (A') (A') (A") (A') (A') (A") (A') (A') (A") (A')
                 (A') (A") (A") (A') (A") (A') (A') (A") (A') (A")
                 (A') (A") (A') (A") (A') (A") (A") (A') (A') (A')
                 (A") (A") (A') (A') (A") (A') (A') (A") (A') (A")
                 (A') (A") (A') (A') (A") (A') (A") (A') (A') (A")
                 (A') (A") (A') (A") (A') (A') (A") (A') (A') (A')
                 (A') (A') (A') (A')
 Beta  Orbitals:
       Occupied  (A') (A') (A') (A') (A") (A') (A') (A")
       Virtual   (A') (A') (A') (A') (A") (A') (A') (A") (A') (A')
                 (A') (A") (A') (A") (A') (A') (A') (A") (A') (A')
                 (A") (A') (A") (A') (A") (A') (A') (A") (A') (A')
                 (A") (A') (A') (A") (A') (A') (A") (A') (A') (A")
                 (A') (A') (A") (A') (A") (A') (A') (A") (A') (A')
                 (A") (A") (A') (A') (A") (A') (A") (A') (A') (A")
                 (A') (A") (A') (A") (A") (A') (A') (A') (A") (A')
                 (A") (A') (A') (A") (A') (A') (A") (A') (A") (A")
                 (A') (A') (A') (A') (A") (A') (A") (A') (A') (A")
                 (A') (A") (A') (A") (A') (A") (A') (A') (A") (A')
                 (A") (A') (A') (A") (A') (A') (A") (A') (A') (A")
                 (A') (A") (A') (A") (A') (A") (A') (A') (A") (A')
                 (A") (A') (A") (A") (A') (A") (A') (A") (A') (A")
                 (A') (A') (A") (A') (A') (A') (A") (A') (A") (A')
                 (A") (A') (A') (A') (A") (A') (A') (A") (A") (A')
                 (A') (A") (A") (A') (A") (A') (A') (A") (A') (A")
                 (A') (A") (A') (A') (A") (A') (A") (A') (A') (A")
                 (A') (A') (A") (A') (A") (A') (A") (A') (A') (A")
                 (A") (A') (A") (A') (A") (A') (A") (A') (A") (A')
                 (A') (A') (A") (A') (A") (A') (A") (A') (A') (A")
                 (A') (A") (A") (A') (A') (A') (A") (A') (A') (A")
                 (A") (A') (A") (A') (A") (A') (A') (A") (A') (A')
                 (A') (A') (A') (A') (A') (A')
 The electronic state is 3-A'.
 Alpha  occ. eigenvalues --  -19.70271 -10.56767  -1.11837  -0.81763  -0.57387
 Alpha  occ. eigenvalues --   -0.51165  -0.50492  -0.49344  -0.43693  -0.35024
 Alpha virt. eigenvalues --    0.04564   0.10524   0.10544   0.14398   0.14591
 Alpha virt. eigenvalues --    0.14644   0.16775   0.30785   0.31028   0.32290
 Alpha virt. eigenvalues --    0.34257   0.34380   0.35114   0.38298   0.43830
 Alpha virt. eigenvalues --    0.43851   0.49675   0.63737   0.63768   0.65838
 Alpha virt. eigenvalues --    0.67772   0.69939   0.70517   0.71812   0.73493
 Alpha virt. eigenvalues --    0.73626   0.82634   0.96006   0.96566   1.01019
 Alpha virt. eigenvalues --    1.01118   1.01317   1.03230   1.03780   1.04524
 Alpha virt. eigenvalues --    1.10071   1.14726   1.14804   1.25096   1.32827
 Alpha virt. eigenvalues --    1.35192   1.40481   1.41606   1.41952   1.59404
 Alpha virt. eigenvalues --    1.61185   1.68325   1.73127   1.73161   1.79528
 Alpha virt. eigenvalues --    1.80870   1.87820   1.87827   1.95813   1.95890
 Alpha virt. eigenvalues --    1.97336   2.02541   2.06869   2.10814   2.10976
 Alpha virt. eigenvalues --    2.12123   2.12331   2.29488   2.30110   2.32221
 Alpha virt. eigenvalues --    2.39476   2.40153   2.47681   2.52087   2.52262
 Alpha virt. eigenvalues --    2.65131   2.65181   2.68340   2.74861   2.75711
 Alpha virt. eigenvalues --    2.77231   2.78763   2.84567   2.84580   2.86468
 Alpha virt. eigenvalues --    2.90239   3.02405   3.02944   3.11120   3.11290
 Alpha virt. eigenvalues --    3.13289   3.15653   3.15974   3.36707   3.39971
 Alpha virt. eigenvalues --    3.40080   3.40802   3.49248   3.63334   3.63803
 Alpha virt. eigenvalues --    3.73041   3.73342   3.74867   3.81417   3.81649
 Alpha virt. eigenvalues --    3.96994   3.98230   4.04649   4.16533   4.19627
 Alpha virt. eigenvalues --    4.30481   4.32814   4.34743   4.84182   5.01352
 Alpha virt. eigenvalues --    5.04094   5.07417   5.09898   5.23317   5.31831
 Alpha virt. eigenvalues --    5.48405   5.48742   5.52711   5.61213   5.61759
 Alpha virt. eigenvalues --    5.67326   5.70070   5.70128   5.73783   5.74544
 Alpha virt. eigenvalues --    5.87053   5.90352   5.91276   5.95070   6.00619
 Alpha virt. eigenvalues --    6.00842   6.10700   6.16057   6.19201   6.19886
 Alpha virt. eigenvalues --    6.38210   6.46480   6.46549   6.56046   6.56219
 Alpha virt. eigenvalues --    6.67789   6.74089   6.75075   6.82163   7.01565
 Alpha virt. eigenvalues --    7.01955   7.03756   7.05351   7.05629   7.10385
 Alpha virt. eigenvalues --    7.26438   7.26898   7.35405   7.35537   7.42252
 Alpha virt. eigenvalues --    7.43020   7.47035   7.47297   7.49767   7.59260
 Alpha virt. eigenvalues --    7.64272   7.87312   7.97736   7.98087   7.99879
 Alpha virt. eigenvalues --    8.00776   8.02949   8.07515   8.07683   8.08815
 Alpha virt. eigenvalues --    8.12014   8.12349   8.14895   8.14972   8.22030
 Alpha virt. eigenvalues --    8.23496   8.31262   8.31688   8.63548   8.64326
 Alpha virt. eigenvalues --    8.74743   8.74771   8.77459   8.78471   8.90223
 Alpha virt. eigenvalues --    8.90435   8.95736   8.95829   9.12195   9.27148
 Alpha virt. eigenvalues --    9.27348   9.37495   9.37576   9.62123   9.69807
 Alpha virt. eigenvalues --    9.69991   9.80731  10.13161  10.13254  10.21372
 Alpha virt. eigenvalues --   10.48506  10.53209  10.58892  10.72241  10.72315
 Alpha virt. eigenvalues --   10.75221  10.86763  10.87276  11.18850  11.20630
 Alpha virt. eigenvalues --   11.48160  11.51699  11.74078  11.74305  11.94546
 Alpha virt. eigenvalues --   12.32883  12.39285  12.93483  13.58617  14.38228
 Alpha virt. eigenvalues --   28.89531  47.63865 146.43429 250.66566
  Beta  occ. eigenvalues --  -19.67467 -10.56240  -0.98828  -0.78893  -0.49443
  Beta  occ. eigenvalues --   -0.49335  -0.46743  -0.38069
  Beta virt. eigenvalues --   -0.09570  -0.08747   0.04312   0.10514   0.10581
  Beta virt. eigenvalues --    0.12602   0.14575   0.14773   0.15871   0.30351
  Beta virt. eigenvalues --    0.31046   0.31580   0.35075   0.35183   0.35945
  Beta virt. eigenvalues --    0.40467   0.43120   0.44238   0.50245   0.63985
  Beta virt. eigenvalues --    0.64001   0.66483   0.67584   0.70076   0.70257
  Beta virt. eigenvalues --    0.72359   0.73183   0.73346   0.82126   0.96420
  Beta virt. eigenvalues --    0.96977   0.98921   1.00698   1.00778   1.02960
  Beta virt. eigenvalues --    1.04288   1.05267   1.09213   1.15312   1.15351
  Beta virt. eigenvalues --    1.26214   1.35292   1.35877   1.42508   1.42878
  Beta virt. eigenvalues --    1.43159   1.59914   1.61719   1.70565   1.73891
  Beta virt. eigenvalues --    1.74012   1.79816   1.82755   1.88687   1.88801
  Beta virt. eigenvalues --    1.96348   1.96404   1.97823   2.04118   2.07008
  Beta virt. eigenvalues --    2.10035   2.10741   2.12591   2.12807   2.29193
  Beta virt. eigenvalues --    2.29579   2.31434   2.38733   2.40185   2.47921
  Beta virt. eigenvalues --    2.52437   2.52578   2.64929   2.65059   2.68477
  Beta virt. eigenvalues --    2.74609   2.75538   2.78505   2.79387   2.84631
  Beta virt. eigenvalues --    2.84685   2.85955   2.90055   3.02729   3.03363
  Beta virt. eigenvalues --    3.11243   3.11882   3.14617   3.17001   3.17392
  Beta virt. eigenvalues --    3.38134   3.40035   3.41149   3.41570   3.53190
  Beta virt. eigenvalues --    3.64323   3.65021   3.75434   3.75599   3.76381
  Beta virt. eigenvalues --    3.84054   3.84502   3.99127   4.00353   4.06751
  Beta virt. eigenvalues --    4.19922   4.22006   4.33328   4.34256   4.35418
  Beta virt. eigenvalues --    4.86715   5.07119   5.07641   5.12535   5.13582
  Beta virt. eigenvalues --    5.27318   5.34008   5.52893   5.53055   5.55390
  Beta virt. eigenvalues --    5.64344   5.64792   5.67506   5.70140   5.72617
  Beta virt. eigenvalues --    5.76607   5.77501   5.87170   5.93584   5.94299
  Beta virt. eigenvalues --    5.99399   6.07378   6.07673   6.11805   6.21729
  Beta virt. eigenvalues --    6.22351   6.22850   6.42198   6.49554   6.49566
  Beta virt. eigenvalues --    6.62819   6.63183   6.70803   6.75920   6.76801
  Beta virt. eigenvalues --    6.86239   7.03291   7.03331   7.05608   7.06112
  Beta virt. eigenvalues --    7.09082   7.12528   7.22267   7.22570   7.36105
  Beta virt. eigenvalues --    7.36472   7.42148   7.42711   7.49057   7.49257
  Beta virt. eigenvalues --    7.52000   7.59744   7.61495   7.87490   7.95309
  Beta virt. eigenvalues --    7.95851   7.97376   7.97649   8.03845   8.09267
  Beta virt. eigenvalues --    8.09310   8.11139   8.11214   8.14530   8.17867
  Beta virt. eigenvalues --    8.18347   8.23858   8.25180   8.32751   8.32788
  Beta virt. eigenvalues --    8.66298   8.66837   8.76473   8.78240   8.80976
  Beta virt. eigenvalues --    8.82639   8.90264   8.90724   8.97046   8.97392
  Beta virt. eigenvalues --    9.16552   9.29032   9.30427   9.39683   9.40505
  Beta virt. eigenvalues --    9.65340   9.74677   9.75159   9.84808  10.18627
  Beta virt. eigenvalues --   10.18900  10.25567  10.54554  10.57282  10.61203
  Beta virt. eigenvalues --   10.84588  10.85554  10.87705  11.00235  11.04408
  Beta virt. eigenvalues --   11.29132  11.31840  11.59457  11.66721  11.90486
  Beta virt. eigenvalues --   11.93028  12.06030  12.46780  12.57832  13.06760
  Beta virt. eigenvalues --   13.71992  14.47775  29.04100  47.77859 146.46273
  Beta virt. eigenvalues --  250.64349
          Condensed to atoms (all electrons):
               1          2          3          4          5          6
     1  C    5.455198   0.355072   0.358081   0.358081   0.271905  -0.060933
     2  H    0.355072   0.475579  -0.024823  -0.024823  -0.007816   0.000322
     3  H    0.358081  -0.024823   0.471653  -0.027676  -0.008720  -0.000867
     4  H    0.358081  -0.024823  -0.027676   0.471653  -0.008720  -0.000867
     5  H    0.271905  -0.007816  -0.008720  -0.008720   0.318915   0.154103
     6  O   -0.060933   0.000322  -0.000867  -0.000867   0.154103   8.142364
          Atomic-Atomic Spin Densities.
               1          2          3          4          5          6
     1  C    0.608298  -0.001544  -0.006162  -0.006162   0.075916  -0.098589
     2  H   -0.001544  -0.027380   0.006552   0.006552  -0.003257   0.003413
     3  H   -0.006162   0.006552  -0.025917   0.010600  -0.002444   0.004370
     4  H   -0.006162   0.006552   0.010600  -0.025917  -0.002444   0.004370
     5  H    0.075916  -0.003257  -0.002444  -0.002444  -0.030173  -0.017980
     6  O   -0.098589   0.003413   0.004370   0.004370  -0.017980   1.554709
 Mulliken charges and spin densities:
               1          2
     1  C   -0.737405   0.571758
     2  H    0.226490  -0.015664
     3  H    0.232352  -0.013001
     4  H    0.232352  -0.013001
     5  H    0.280334   0.019617
     6  O   -0.234122   1.450292
 Sum of Mulliken charges =  -0.00000   2.00000
 Mulliken charges and spin densities with hydrogens summed into heavy atoms:
               1          2
     1  C   -0.046212   0.530091
     6  O    0.046212   1.469909
 Electronic spatial extent (au):  <R**2>=            145.0769
 Charge=             -0.0000 electrons
 Dipole moment (field-independent basis, Debye):
    X=              0.0025    Y=             -2.0044    Z=             -0.0000  Tot=              2.0044
 Quadrupole moment (field-independent basis, Debye-Ang):
   XX=            -12.7232   YY=            -15.2614   ZZ=            -13.9864
   XY=              0.0067   XZ=             -0.0000   YZ=             -0.0000
 Traceless Quadrupole moment (field-independent basis, Debye-Ang):
   XX=              1.2671   YY=             -1.2711   ZZ=              0.0040
   XY=              0.0067   XZ=             -0.0000   YZ=             -0.0000
 Octapole moment (field-independent basis, Debye-Ang**2):
  XXX=             -0.8679  YYY=              2.4837  ZZZ=              0.0000  XYY=              0.0402
  XXY=              1.3952  XXZ=              0.0000  XZZ=              0.8595  YZZ=             -0.3905
  YYZ=             -0.0000  XYZ=              0.0000
 Hexadecapole moment (field-independent basis, Debye-Ang**3):
 XXXX=            -18.3394 YYYY=           -149.3649 ZZZZ=            -20.3671 XXXY=              1.3184
 XXXZ=             -0.0000 YYYX=             -0.0542 YYYZ=              0.0000 ZZZX=              0.0000
 ZZZY=             -0.0000 XXYY=            -24.8779 XXZZ=             -6.4721 YYZZ=            -27.4217
 XXYZ=             -0.0000 YYXZ=             -0.0000 ZZXY=             -1.3119
 N-N= 3.091033041713D+01 E-N=-3.331020918228D+02  KE= 1.151607269622D+02
                          Isotropic Fermi Contact Couplings
        Atom                 a.u.       MegaHertz       Gauss      10(-4) cm-1
     1  C(13)              0.18500     103.98648      37.10496      34.68616
     2  H(1)              -0.00497     -11.11353      -3.96558      -3.70707
     3  H(1)              -0.00581     -12.99529      -4.63704      -4.33476
     4  H(1)              -0.00581     -12.99529      -4.63704      -4.33476
     5  H(1)              -0.04410     -98.56267     -35.16961     -32.87697
     6  O(17)              0.18499     -56.06968     -20.00706     -18.70283
 PrsmSu:  requested number of processors reduced to:  21 ShMem   1 Linda.
 --------------------------------------------------------
       Center         ----  Spin Dipole Couplings  ----
                      3XX-RR        3YY-RR        3ZZ-RR
 --------------------------------------------------------
     1   Atom       -0.358014      0.722511     -0.364497
     2   Atom        0.043750      0.007321     -0.051071
     3   Atom       -0.027359      0.007204      0.020155
     4   Atom       -0.027359      0.007204      0.020155
     5   Atom       -0.166687      0.374329     -0.207642
     6   Atom        2.703627      0.362930     -3.066557
 --------------------------------------------------------
                        XY            XZ            YZ
 --------------------------------------------------------
     1   Atom        0.013458      0.000000     -0.000000
     2   Atom        0.019986      0.000000      0.000000
     3   Atom       -0.009707      0.040105     -0.018551
     4   Atom       -0.009707     -0.040105      0.018551
     5   Atom       -0.001958      0.000000      0.000000
     6   Atom        0.024501      0.000000      0.000000
 --------------------------------------------------------


 ---------------------------------------------------------------------------------
              Anisotropic Spin Dipole Couplings in Principal Axis System
 ---------------------------------------------------------------------------------

       Atom             a.u.   MegaHertz   Gauss  10(-4) cm-1        Axes

              Baa    -0.3645   -48.912   -17.453   -16.315  0.0000  0.0000  1.0000
     1 C(13)  Bbb    -0.3582   -48.065   -17.151   -16.033  0.9999 -0.0125  0.0000
              Bcc     0.7227    96.977    34.604    32.348  0.0125  0.9999 -0.0000
 
              Baa    -0.0511   -27.249    -9.723    -9.089  0.0000  0.0000  1.0000
     2 H(1)   Bbb    -0.0015    -0.803    -0.287    -0.268 -0.4040  0.9148 -0.0000
              Bcc     0.0526    28.052    10.010     9.357  0.9148  0.4040 -0.0000
 
              Baa    -0.0502   -26.798    -9.562    -8.939  0.8671 -0.0143 -0.4979
     3 H(1)   Bbb    -0.0024    -1.291    -0.461    -0.431  0.2195  0.9082  0.3563
              Bcc     0.0526    28.090    10.023     9.370  0.4471 -0.4183  0.7907
 
              Baa    -0.0502   -26.798    -9.562    -8.939  0.8671 -0.0143  0.4979
     4 H(1)   Bbb    -0.0024    -1.291    -0.461    -0.431  0.2195  0.9082 -0.3563
              Bcc     0.0526    28.090    10.023     9.370 -0.4471  0.4183  0.7907
 
              Baa    -0.2076  -110.788   -39.532   -36.955  0.0000  0.0000  1.0000
     5 H(1)   Bbb    -0.1667   -88.940   -31.736   -29.667  1.0000  0.0036 -0.0000
              Bcc     0.3743   199.728    71.268    66.622 -0.0036  1.0000 -0.0000
 
              Baa    -3.0666   221.894    79.177    74.016  0.0000  0.0000  1.0000
     6 O(17)  Bbb     0.3627   -26.243    -9.364    -8.754 -0.0105  0.9999 -0.0000
              Bcc     2.7039  -195.651   -69.813   -65.262  0.9999  0.0105 -0.0000
 

 ---------------------------------------------------------------------------------

 PrsmSu:  requested number of processors reduced to:  21 ShMem   1 Linda.
 No NMR shielding tensors so no spin-rotation constants.
 Leave Link  601 at Fri Apr 16 23:06:47 2021, MaxMem=   104857600 cpu:             224.6 elap:               5.0
 (Enter /s/ls4/users/knvvv/bin/g16sse/l9999.exe)

 Test job not archived.
 1\1\GINC-N150\Stability\UM062X\def2QZVP\C1H4O1(3)\KNVVV\16-Apr-2021\0\
 \#P M062X/Def2QZVP Integral=UltraFineGrid SCF=NoSymm Stable=(RExt, Opt
 ) IOp(1/33=1)\\Database calculations.\\0,3\C,0,0.0002900002,-1.1422873
 015,0.\H,0,-1.0559573251,-1.3847351499,0.\H,0,0.5201674772,-1.40738922
 79,0.9124497469\H,0,0.5201674772,-1.4073892279,-0.9124497469\H,0,0.011
 5599828,0.1600988724,0.\O,0,0.0002900002,1.3616418547,0.\\Version=ES64
 L-G16RevA.03\State=3-A'\HF=-115.5587159\S2=2.015621\S2-1=0.\S2A=2.0000
 88\RMSD=6.909e-09\Dipole=0.0009679,-0.7885867,0.\Quadrupole=0.9420864,
 -0.9450306,0.0029442,0.0049585,0.,0.\PG=CS [SG(C1H2O1),X(H2)]\\@


 In the beginning there was nothing, which exploded.
 Job cpu time:       0 days  2 hours 24 minutes  2.9 seconds.
 Elapsed time:       0 days  0 hours  3 minutes 43.6 seconds.
 File lengths (MBytes):  RWF=    148 Int=      0 D2E=      0 Chk=      8 Scr=      1
 Normal termination of Gaussian 16 at Fri Apr 16 23:06:47 2021.
