 Entering Gaussian System, Link 0=/s/ls4/users/knvvv/bin/g16sse/g16
 Input=data/database/M062X--def2-QZVP--MB16-43_NaH.gjf
 Output=data/database/M062X--def2-QZVP--MB16-43_NaH.log
 Initial command:
 /s/ls4/users/knvvv/bin/g16sse/l1.exe "/s/ls4/users/knvvv/bin/scratch/Gau-46801.inp" -scrdir="/s/ls4/users/knvvv/bin/scratch/"
 Entering Link 1 = /s/ls4/users/knvvv/bin/g16sse/l1.exe PID=     46802.
  
 Copyright (c) 1988,1990,1992,1993,1995,1998,2003,2009,2016,
            Gaussian, Inc.  All Rights Reserved.
  
 This is part of the Gaussian(R) 16 program.  It is based on
 the Gaussian(R) 09 system (copyright 2009, Gaussian, Inc.),
 the Gaussian(R) 03 system (copyright 2003, Gaussian, Inc.),
 the Gaussian(R) 98 system (copyright 1998, Gaussian, Inc.),
 the Gaussian(R) 94 system (copyright 1995, Gaussian, Inc.),
 the Gaussian 92(TM) system (copyright 1992, Gaussian, Inc.),
 the Gaussian 90(TM) system (copyright 1990, Gaussian, Inc.),
 the Gaussian 88(TM) system (copyright 1988, Gaussian, Inc.),
 the Gaussian 86(TM) system (copyright 1986, Carnegie Mellon
 University), and the Gaussian 82(TM) system (copyright 1983,
 Carnegie Mellon University). Gaussian is a federally registered
 trademark of Gaussian, Inc.
  
 This software contains proprietary and confidential information,
 including trade secrets, belonging to Gaussian, Inc.
  
 This software is provided under written license and may be
 used, copied, transmitted, or stored only in accord with that
 written license.
  
 The following legend is applicable only to US Government
 contracts under FAR:
  
                    RESTRICTED RIGHTS LEGEND
  
 Use, reproduction and disclosure by the US Government is
 subject to restrictions as set forth in subparagraphs (a)
 and (c) of the Commercial Computer Software - Restricted
 Rights clause in FAR 52.227-19.
  
 Gaussian, Inc.
 340 Quinnipiac St., Bldg. 40, Wallingford CT 06492
  
  
 ---------------------------------------------------------------
 Warning -- This program may not be used in any manner that
 competes with the business of Gaussian, Inc. or will provide
 assistance to any competitor of Gaussian, Inc.  The licensee
 of this program is prohibited from giving any competitor of
 Gaussian, Inc. access to this program.  By using this program,
 the user acknowledges that Gaussian, Inc. is engaged in the
 business of creating and licensing software in the field of
 computational chemistry and represents and warrants to the
 licensee that it is not a competitor of Gaussian, Inc. and that
 it will not use this program in any manner prohibited above.
 ---------------------------------------------------------------
  

 Cite this work as:
 Gaussian 16, Revision A.03,
 M. J. Frisch, G. W. Trucks, H. B. Schlegel, G. E. Scuseria, 
 M. A. Robb, J. R. Cheeseman, G. Scalmani, V. Barone, 
 G. A. Petersson, H. Nakatsuji, X. Li, M. Caricato, A. V. Marenich, 
 J. Bloino, B. G. Janesko, R. Gomperts, B. Mennucci, H. P. Hratchian, 
 J. V. Ortiz, A. F. Izmaylov, J. L. Sonnenberg, D. Williams-Young, 
 F. Ding, F. Lipparini, F. Egidi, J. Goings, B. Peng, A. Petrone, 
 T. Henderson, D. Ranasinghe, V. G. Zakrzewski, J. Gao, N. Rega, 
 G. Zheng, W. Liang, M. Hada, M. Ehara, K. Toyota, R. Fukuda, 
 J. Hasegawa, M. Ishida, T. Nakajima, Y. Honda, O. Kitao, H. Nakai, 
 T. Vreven, K. Throssell, J. A. Montgomery, Jr., J. E. Peralta, 
 F. Ogliaro, M. J. Bearpark, J. J. Heyd, E. N. Brothers, K. N. Kudin, 
 V. N. Staroverov, T. A. Keith, R. Kobayashi, J. Normand, 
 K. Raghavachari, A. P. Rendell, J. C. Burant, S. S. Iyengar, 
 J. Tomasi, M. Cossi, J. M. Millam, M. Klene, C. Adamo, R. Cammi, 
 J. W. Ochterski, R. L. Martin, K. Morokuma, O. Farkas, 
 J. B. Foresman, and D. J. Fox, Gaussian, Inc., Wallingford CT, 2016.
 
 ******************************************
 Gaussian 16:  ES64L-G16RevA.03 25-Dec-2016
                17-Apr-2021 
 ******************************************
 %RWF=temp12_64504,70GB
 %nprocshared=48
 Will use up to   48 processors via shared memory.
 Default route: MaxDisk=80GB
 ----------------------------------------------------------------------
 #P M062X/Def2QZVP Integral=UltraFineGrid SCF=NoSymm Stable=(RExt, Opt)
  IOp(1/33=1)
 ----------------------------------------------------------------------
 1/33=1,38=1,172=1/1;
 2/12=2,17=6,18=5,40=1/2;
 3/5=45,7=101,11=2,25=1,30=1,74=-55,75=-5/1,2,3;
 4/9=2/1;
 5/5=2,38=5/2;
 6/7=2,8=2,9=2,10=2,28=1/1;
 8/6=1,10=90,11=11/1;
 9/8=-3,42=1,46=1/14;
 5/5=2,8=3,17=40,38=5/8(-2);
 6/7=2,8=2,9=2,10=2,28=1/1;
 99/5=1,9=1/99;
 Leave Link    1 at Sat Apr 17 04:55:39 2021, MaxMem=           0 cpu:               8.8 elap:               0.2
 (Enter /s/ls4/users/knvvv/bin/g16sse/l101.exe)
 ONIOM data not found on unit 2.
 ----------------------
 Database calculations.
 ----------------------
 TstMul:  ICh=     0
 TstMul:  Mul=     1
 TstMul:  ICh=     0
 TstMul:  Mul=     1
 Symbolic Z-matrix:
 Charge =  0 Multiplicity = 1
 Na                    0.        0.       -0.94858 
 H                     0.        0.        0.94858 
 
 RdStrC is calling ZToCFu for IStruc=1 NZ=     2.
 PrtBox:  NBox=     1 Levels=  1 BoxLen=    8.00 SMaxX=        3.59
          Shift=            0.000000            0.000000            1.792562
 Box      1 Number                   0 centers from      1 to      2:
 After GenITR:
 ITRead=  0  0
 MicOpt= -1 -1
 ITRead=  0  0
 MicOpt= -1 -1
 NAtoms=      2 NQM=        2 NQMF=       0 NMMI=      0 NMMIF=      0
                NMic=       0 NMicF=      0.
                    Isotopes and Nuclear Properties:
 (Nuclear quadrupole moments (NQMom) in fm**2, nuclear magnetic moments (NMagM)
  in nuclear magnetons)

  Atom         1           2
 IAtWgt=          23           1
 AtmWgt=  22.9897697   1.0078250
 NucSpn=           3           1
 AtZEff=  -0.0000000  -0.0000000
 NQMom=   10.4000000   0.0000000
 NMagM=    2.2175200   2.7928460
 AtZNuc=  11.0000000   1.0000000
 No MM parameters found.
 Leave Link  101 at Sat Apr 17 04:55:39 2021, MaxMem=   104857600 cpu:               6.9 elap:               0.2
 (Enter /s/ls4/users/knvvv/bin/g16sse/l202.exe)
                          Input orientation:                          
 ---------------------------------------------------------------------
 Center     Atomic      Atomic             Coordinates (Angstroms)
 Number     Number       Type             X           Y           Z
 ---------------------------------------------------------------------
      1         11           0        0.000000    0.000000   -0.948583
      2          1           0        0.000000    0.000000    0.948583
 ---------------------------------------------------------------------
 Stoichiometry    HNa
 Framework group  C*V[C*(HNa)]
 Deg. of freedom     1
 Full point group                 C*V     NOp   4
 Largest Abelian subgroup         C2V     NOp   4
 Largest concise Abelian subgroup C1      NOp   1
                         Standard orientation:                         
 ---------------------------------------------------------------------
 Center     Atomic      Atomic             Coordinates (Angstroms)
 Number     Number       Type             X           Y           Z
 ---------------------------------------------------------------------
      1         11           0        0.000000    0.000000    0.158097
      2          1           0        0.000000    0.000000   -1.739069
 ---------------------------------------------------------------------
 Rotational constants (GHZ):           0.0000000         145.4300997         145.4300997
 Leave Link  202 at Sat Apr 17 04:55:40 2021, MaxMem=   104857600 cpu:               6.0 elap:               0.1
 (Enter /s/ls4/users/knvvv/bin/g16sse/l301.exe)
 Standard basis: def2QZVP (5D, 7F)
 Ernie: Thresh=  0.10000D-02 Tol=  0.10000D-05 Strict=F.
 There are    42 symmetry adapted cartesian basis functions of A1  symmetry.
 There are     7 symmetry adapted cartesian basis functions of A2  symmetry.
 There are    19 symmetry adapted cartesian basis functions of B1  symmetry.
 There are    19 symmetry adapted cartesian basis functions of B2  symmetry.
 There are    35 symmetry adapted basis functions of A1  symmetry.
 There are     7 symmetry adapted basis functions of A2  symmetry.
 There are    17 symmetry adapted basis functions of B1  symmetry.
 There are    17 symmetry adapted basis functions of B2  symmetry.
    76 basis functions,   122 primitive gaussians,    87 cartesian basis functions
     6 alpha electrons        6 beta electrons
       nuclear repulsion energy         3.0682334033 Hartrees.
 IExCor= 4336 DFT=T Ex+Corr=M062X ExCW=0 ScaHFX=  0.540000
 ScaDFX=  1.000000  1.000000  1.000000  1.000000 ScalE2=  1.000000  1.000000
 IRadAn=      5 IRanWt=     -1 IRanGd=            0 ICorTp=0 IEmpDi=  4
 NAtoms=    2 NActive=    2 NUniq=    2 SFac= 1.00D+00 NAtFMM=   60 NAOKFM=F Big=F
 Integral buffers will be    131072 words long.
 Raffenetti 2 integral format.
 Two-electron integral symmetry is turned on.
 Leave Link  301 at Sat Apr 17 04:55:40 2021, MaxMem=   104857600 cpu:               6.2 elap:               0.2
 (Enter /s/ls4/users/knvvv/bin/g16sse/l302.exe)
 NPDir=0 NMtPBC=     1 NCelOv=     1 NCel=       1 NClECP=     1 NCelD=      1
         NCelK=      1 NCelE2=     1 NClLst=     1 CellRange=     0.0.
 One-electron integrals computed using PRISM.
 One-electron integral symmetry used in STVInt
 PrsmSu:  requested number of processors reduced to:  13 ShMem   1 Linda.
   4 Symmetry operations used in ECPInt.
 ECPInt:  NShTT=     406 NPrTT=    1307 LenC2=     407 LenP2D=    1254.
 LDataN:  DoStor=T MaxTD1= 6 Len=  172
 NBasis=    76 RedAO= T EigKep=  3.88D-03  NBF=    35     7    17    17
 NBsUse=    76 1.00D-06 EigRej= -1.00D+00 NBFU=    35     7    17    17
 Precomputing XC quadrature grid using
 IXCGrd= 4 IRadAn=           5 IRanWt=          -1 IRanGd=           0 AccXCQ= 0.00D+00.
 Generated NRdTot=       0 NPtTot=           0 NUsed=           0 NTot=          32
 NSgBfM=    87    87    87    87    87 MxSgAt=     2 MxSgA2=     2.
 Leave Link  302 at Sat Apr 17 04:55:42 2021, MaxMem=   104857600 cpu:              85.4 elap:               1.9
 (Enter /s/ls4/users/knvvv/bin/g16sse/l303.exe)
 DipDrv:  MaxL=1.
 Leave Link  303 at Sat Apr 17 04:55:42 2021, MaxMem=   104857600 cpu:               9.7 elap:               0.2
 (Enter /s/ls4/users/knvvv/bin/g16sse/l401.exe)
 SCF N**3 symmetry information disabled.
 ExpMin= 1.55D-02 ExpMax= 3.80D+05 ExpMxC= 1.19D+03 IAcc=3 IRadAn=         5 AccDes= 0.00D+00
 Harris functional with IExCor= 1009 and IRadAn=       5 diagonalized for initial guess.
 HarFok:  IExCor= 1009 AccDes= 0.00D+00 IRadAn=         5 IDoV= 1 UseB2=F ITyADJ=14
 ICtDFT=  3500011 ScaDFX=  1.000000  1.000000  1.000000  1.000000
 FoFCou: FMM=F IPFlag=           0 FMFlag=      100000 FMFlg1=           0
         NFxFlg=           0 DoJE=T BraDBF=F KetDBF=T FulRan=T
         wScrn=  0.000000 ICntrl=       500 IOpCl=  0 I1Cent=   200000004 NGrid=           0
         NMat0=    1 NMatS0=      1 NMatT0=    0 NMatD0=    1 NMtDS0=    0 NMtDT0=    0
 Petite list used in FoFCou.
 Harris En= -162.763652472131    
 JPrj=0 DoOrth=F DoCkMO=F.
 Initial guess orbital symmetries:
       Occupied  (SG) (SG) (SG) (PI) (PI) (SG)
       Virtual   (SG) (PI) (PI) (SG) (SG) (PI) (PI) (SG) (PI) (PI)
                 (DLTA) (DLTA) (SG) (SG) (SG) (PI) (PI) (SG) (PI)
                 (PI) (DLTA) (DLTA) (PHI) (PHI) (SG) (PI) (PI)
                 (DLTA) (DLTA) (SG) (PI) (PI) (SG) (PI) (PI) (SG)
                 (SG) (SG) (DLTA) (DLTA) (PI) (PI) (SG) (PI) (PI)
                 (SG) (SG) (SG) (PI) (PI) (DLTA) (DLTA) (PHI) (PHI)
                 (DLTA) (DLTA) (PI) (PI) (SG) (SG) (PI) (PI) (SG)
                 (DLTA) (DLTA) (PI) (PI) (SG) (SG) (SG)
 The electronic state of the initial guess is 1-SG.
 Leave Link  401 at Sat Apr 17 04:55:43 2021, MaxMem=   104857600 cpu:              69.5 elap:               1.5
 (Enter /s/ls4/users/knvvv/bin/g16sse/l502.exe)
 Keep R1 ints in memory in symmetry-blocked form, NReq=47947442.
 FoFCou: FMM=F IPFlag=           0 FMFlag=           0 FMFlg1=           0
         NFxFlg=           0 DoJE=F BraDBF=F KetDBF=F FulRan=T
         wScrn=  0.000000 ICntrl=       600 IOpCl=  0 I1Cent=           0 NGrid=           0
         NMat0=    1 NMatS0=   2926 NMatT0=    0 NMatD0=    1 NMtDS0=    0 NMtDT0=    0
 Petite list used in FoFCou.
 Closed shell SCF:
 Using DIIS extrapolation, IDIIS=  1040.
 NGot=   104857600 LenX=   103709868 LenY=   103701858
 Requested convergence on RMS density matrix=1.00D-08 within 128 cycles.
 Requested convergence on MAX density matrix=1.00D-06.
 Requested convergence on             energy=1.00D-06.
 No special actions if energy rises.

 Cycle   1  Pass 1  IDiag  1:
 E= -162.775515294672    
 DIIS: error= 3.28D-02 at cycle   1 NSaved=   1.
 NSaved= 1 IEnMin= 1 EnMin= -162.775515294672     IErMin= 1 ErrMin= 3.28D-02
 ErrMax= 3.28D-02  0.00D+00 EMaxC= 1.00D-01 BMatC= 4.99D-02 BMatP= 4.99D-02
 IDIUse=3 WtCom= 6.72D-01 WtEn= 3.28D-01
 Coeff-Com:  0.100D+01
 Coeff-En:   0.100D+01
 Coeff:      0.100D+01
 Gap=     0.081 Goal=   None    Shift=    0.000
 GapD=    0.081 DampG=0.500 DampE=0.500 DampFc=0.2500 IDamp=-1.
 Damping current iteration by 2.50D-01
 RMSDP=3.42D-03 MaxDP=9.71D-02              OVMax= 3.29D-01

 Cycle   2  Pass 1  IDiag  1:
 E= -162.789923341250     Delta-E=       -0.014408046578 Rises=F Damp=T
 DIIS: error= 2.19D-02 at cycle   2 NSaved=   2.
 NSaved= 2 IEnMin= 2 EnMin= -162.789923341250     IErMin= 2 ErrMin= 2.19D-02
 ErrMax= 2.19D-02  0.00D+00 EMaxC= 1.00D-01 BMatC= 2.25D-02 BMatP= 4.99D-02
 IDIUse=3 WtCom= 7.81D-01 WtEn= 2.19D-01
 Coeff-Com: -0.192D+01 0.292D+01
 Coeff-En:   0.000D+00 0.100D+01
 Coeff:     -0.150D+01 0.250D+01
 Gap=     0.194 Goal=   None    Shift=    0.000
 RMSDP=1.53D-03 MaxDP=3.62D-02 DE=-1.44D-02 OVMax= 1.42D-01

 Cycle   3  Pass 1  IDiag  1:
 E= -162.823543928269     Delta-E=       -0.033620587018 Rises=F Damp=F
 DIIS: error= 1.88D-03 at cycle   3 NSaved=   3.
 NSaved= 3 IEnMin= 3 EnMin= -162.823543928269     IErMin= 3 ErrMin= 1.88D-03
 ErrMax= 1.88D-03  0.00D+00 EMaxC= 1.00D-01 BMatC= 1.23D-04 BMatP= 2.25D-02
 IDIUse=3 WtCom= 9.81D-01 WtEn= 1.88D-02
 Coeff-Com: -0.144D+00 0.217D+00 0.927D+00
 Coeff-En:   0.000D+00 0.000D+00 0.100D+01
 Coeff:     -0.142D+00 0.213D+00 0.929D+00
 Gap=     0.189 Goal=   None    Shift=    0.000
 RMSDP=4.41D-04 MaxDP=9.33D-03 DE=-3.36D-02 OVMax= 1.32D-02

 Cycle   4  Pass 1  IDiag  1:
 E= -162.823721821860     Delta-E=       -0.000177893591 Rises=F Damp=F
 DIIS: error= 3.12D-04 at cycle   4 NSaved=   4.
 NSaved= 4 IEnMin= 4 EnMin= -162.823721821860     IErMin= 4 ErrMin= 3.12D-04
 ErrMax= 3.12D-04  0.00D+00 EMaxC= 1.00D-01 BMatC= 5.43D-06 BMatP= 1.23D-04
 IDIUse=3 WtCom= 9.97D-01 WtEn= 3.12D-03
 Coeff-Com: -0.210D-01 0.276D-01 0.104D-02 0.992D+00
 Coeff-En:   0.000D+00 0.000D+00 0.000D+00 0.100D+01
 Coeff:     -0.209D-01 0.275D-01 0.104D-02 0.992D+00
 Gap=     0.186 Goal=   None    Shift=    0.000
 RMSDP=8.04D-05 MaxDP=1.66D-03 DE=-1.78D-04 OVMax= 2.78D-03

 Cycle   5  Pass 1  IDiag  1:
 E= -162.823731835702     Delta-E=       -0.000010013842 Rises=F Damp=F
 DIIS: error= 8.47D-05 at cycle   5 NSaved=   5.
 NSaved= 5 IEnMin= 5 EnMin= -162.823731835702     IErMin= 5 ErrMin= 8.47D-05
 ErrMax= 8.47D-05  0.00D+00 EMaxC= 1.00D-01 BMatC= 3.66D-07 BMatP= 5.43D-06
 IDIUse=1 WtCom= 1.00D+00 WtEn= 0.00D+00
 Coeff-Com:  0.124D-02-0.970D-03-0.237D-01 0.705D-01 0.953D+00
 Coeff:      0.124D-02-0.970D-03-0.237D-01 0.705D-01 0.953D+00
 Gap=     0.186 Goal=   None    Shift=    0.000
 RMSDP=2.36D-05 MaxDP=5.17D-04 DE=-1.00D-05 OVMax= 1.39D-03

 Cycle   6  Pass 1  IDiag  1:
 E= -162.823733099296     Delta-E=       -0.000001263595 Rises=F Damp=F
 DIIS: error= 5.32D-05 at cycle   6 NSaved=   6.
 NSaved= 6 IEnMin= 6 EnMin= -162.823733099296     IErMin= 6 ErrMin= 5.32D-05
 ErrMax= 5.32D-05  0.00D+00 EMaxC= 1.00D-01 BMatC= 4.50D-08 BMatP= 3.66D-07
 IDIUse=1 WtCom= 1.00D+00 WtEn= 0.00D+00
 Coeff-Com:  0.221D-02-0.261D-02-0.272D-04-0.705D-01 0.603D-01 0.101D+01
 Coeff:      0.221D-02-0.261D-02-0.272D-04-0.705D-01 0.603D-01 0.101D+01
 Gap=     0.186 Goal=   None    Shift=    0.000
 RMSDP=8.61D-06 MaxDP=1.43D-04 DE=-1.26D-06 OVMax= 4.13D-04

 Cycle   7  Pass 1  IDiag  1:
 E= -162.823733243293     Delta-E=       -0.000000143997 Rises=F Damp=F
 DIIS: error= 9.04D-06 at cycle   7 NSaved=   7.
 NSaved= 7 IEnMin= 7 EnMin= -162.823733243293     IErMin= 7 ErrMin= 9.04D-06
 ErrMax= 9.04D-06  0.00D+00 EMaxC= 1.00D-01 BMatC= 2.08D-09 BMatP= 4.50D-08
 IDIUse=1 WtCom= 1.00D+00 WtEn= 0.00D+00
 Coeff-Com:  0.208D-03-0.340D-03 0.432D-02-0.398D-03-0.558D-01-0.662D-01
 Coeff-Com:  0.112D+01
 Coeff:      0.208D-03-0.340D-03 0.432D-02-0.398D-03-0.558D-01-0.662D-01
 Coeff:      0.112D+01
 Gap=     0.186 Goal=   None    Shift=    0.000
 RMSDP=3.15D-06 MaxDP=6.83D-05 DE=-1.44D-07 OVMax= 9.75D-05

 Cycle   8  Pass 1  IDiag  1:
 E= -162.823733248567     Delta-E=       -0.000000005274 Rises=F Damp=F
 DIIS: error= 1.28D-06 at cycle   8 NSaved=   8.
 NSaved= 8 IEnMin= 8 EnMin= -162.823733248567     IErMin= 8 ErrMin= 1.28D-06
 ErrMax= 1.28D-06  0.00D+00 EMaxC= 1.00D-01 BMatC= 4.10D-11 BMatP= 2.08D-09
 IDIUse=1 WtCom= 1.00D+00 WtEn= 0.00D+00
 Coeff-Com:  0.416D-04-0.547D-04-0.557D-04 0.167D-02 0.351D-02-0.252D-01
 Coeff-Com: -0.750D-01 0.110D+01
 Coeff:      0.416D-04-0.547D-04-0.557D-04 0.167D-02 0.351D-02-0.252D-01
 Coeff:     -0.750D-01 0.110D+01
 Gap=     0.186 Goal=   None    Shift=    0.000
 RMSDP=3.29D-07 MaxDP=6.53D-06 DE=-5.27D-09 OVMax= 1.02D-05

 Cycle   9  Pass 1  IDiag  1:
 E= -162.823733248659     Delta-E=       -0.000000000092 Rises=F Damp=F
 DIIS: error= 1.22D-07 at cycle   9 NSaved=   9.
 NSaved= 9 IEnMin= 9 EnMin= -162.823733248659     IErMin= 9 ErrMin= 1.22D-07
 ErrMax= 1.22D-07  0.00D+00 EMaxC= 1.00D-01 BMatC= 5.26D-13 BMatP= 4.10D-11
 IDIUse=1 WtCom= 1.00D+00 WtEn= 0.00D+00
 Coeff-Com:  0.220D-05-0.287D-05-0.118D-04-0.226D-03 0.588D-03 0.352D-02
 Coeff-Com: -0.757D-02-0.120D+00 0.112D+01
 Coeff:      0.220D-05-0.287D-05-0.118D-04-0.226D-03 0.588D-03 0.352D-02
 Coeff:     -0.757D-02-0.120D+00 0.112D+01
 Gap=     0.186 Goal=   None    Shift=    0.000
 RMSDP=2.21D-08 MaxDP=5.77D-07 DE=-9.24D-11 OVMax= 9.09D-07

 Cycle  10  Pass 1  IDiag  1:
 E= -162.823733248660     Delta-E=       -0.000000000001 Rises=F Damp=F
 DIIS: error= 1.11D-08 at cycle  10 NSaved=  10.
 NSaved=10 IEnMin=10 EnMin= -162.823733248660     IErMin=10 ErrMin= 1.11D-08
 ErrMax= 1.11D-08  0.00D+00 EMaxC= 1.00D-01 BMatC= 3.85D-15 BMatP= 5.26D-13
 IDIUse=1 WtCom= 1.00D+00 WtEn= 0.00D+00
 Coeff-Com: -0.815D-07 0.725D-07 0.351D-05-0.249D-04-0.599D-04 0.404D-03
 Coeff-Com:  0.116D-02-0.143D-01-0.484D-02 0.102D+01
 Coeff:     -0.815D-07 0.725D-07 0.351D-05-0.249D-04-0.599D-04 0.404D-03
 Coeff:      0.116D-02-0.143D-01-0.484D-02 0.102D+01
 Gap=     0.186 Goal=   None    Shift=    0.000
 RMSDP=3.60D-09 MaxDP=9.75D-08 DE=-6.82D-13 OVMax= 1.15D-07

 SCF Done:  E(RM062X) =  -162.823733249     A.U. after   10 cycles
            NFock= 10  Conv=0.36D-08     -V/T= 2.0040
 KE= 1.621807146330D+02 PE=-3.968229557221D+02 EE= 6.875027443716D+01
 Leave Link  502 at Sat Apr 17 04:55:56 2021, MaxMem=   104857600 cpu:             612.0 elap:              13.1
 (Enter /s/ls4/users/knvvv/bin/g16sse/l601.exe)
 Copying SCF densities to generalized density rwf, IOpCl= 0 IROHF=0.

 **********************************************************************

            Population analysis using the SCF density.

 **********************************************************************

 Orbital symmetries:
       Occupied  (SG) (SG) (PI) (PI) (SG) (SG)
       Virtual   (SG) (PI) (PI) (SG) (SG) (PI) (PI) (SG) (SG) (PI)
                 (PI) (DLTA) (DLTA) (SG) (PI) (PI) (SG) (SG) (PI)
                 (PI) (DLTA) (DLTA) (PHI) (PHI) (SG) (PI) (PI)
                 (DLTA) (DLTA) (SG) (PI) (PI) (SG) (PI) (PI) (SG)
                 (SG) (SG) (DLTA) (DLTA) (PI) (PI) (SG) (PI) (PI)
                 (SG) (SG) (SG) (PHI) (PHI) (DLTA) (DLTA) (PI)
                 (PI) (SG) (DLTA) (DLTA) (PI) (PI) (SG) (PI) (PI)
                 (SG) (DLTA) (DLTA) (PI) (PI) (SG) (SG) (SG)
 The electronic state is 1-SG.
 Alpha  occ. eigenvalues --  -39.16601  -2.41708  -1.29599  -1.29599  -1.29353
 Alpha  occ. eigenvalues --   -0.22087
 Alpha virt. eigenvalues --   -0.03438   0.00112   0.00112   0.02293   0.03078
 Alpha virt. eigenvalues --    0.06446   0.06446   0.09659   0.15965   0.16392
 Alpha virt. eigenvalues --    0.16392   0.16697   0.16697   0.22446   0.28010
 Alpha virt. eigenvalues --    0.28010   0.28393   0.36601   0.45508   0.45508
 Alpha virt. eigenvalues --    0.47761   0.47761   0.47890   0.47890   0.55865
 Alpha virt. eigenvalues --    0.61934   0.61934   0.65570   0.65571   0.73088
 Alpha virt. eigenvalues --    0.83771   0.83771   0.94472   1.00401   1.00401
 Alpha virt. eigenvalues --    1.06463   1.17021   1.39011   1.97941   1.97942
 Alpha virt. eigenvalues --    2.06406   2.06406   2.30429   2.44896   2.44896
 Alpha virt. eigenvalues --    2.76408   5.03183   5.48518   5.52732   5.52732
 Alpha virt. eigenvalues --    5.54045   5.54051   5.57172   5.57172   5.76896
 Alpha virt. eigenvalues --    5.94756   5.94757   5.96575   5.96575   6.01356
 Alpha virt. eigenvalues --    7.23731   7.23731   7.37800   7.45426   7.45430
 Alpha virt. eigenvalues --    7.60314   7.60314   7.86998  21.08369 126.02831
          Condensed to atoms (all electrons):
               1          2
     1  Na  10.296731   0.347395
     2  H    0.347395   1.008479
 Mulliken charges:
               1
     1  Na   0.355874
     2  H   -0.355874
 Sum of Mulliken charges =  -0.00000
 Mulliken charges with hydrogens summed into heavy atoms:
               1
     1  Na  -0.000000
 Electronic spatial extent (au):  <R**2>=             36.5440
 Charge=             -0.0000 electrons
 Dipole moment (field-independent basis, Debye):
    X=              0.0000    Y=             -0.0000    Z=              6.4782  Tot=              6.4782
 Quadrupole moment (field-independent basis, Debye-Ang):
   XX=             -8.7115   YY=             -8.7115   ZZ=            -15.8828
   XY=             -0.0000   XZ=              0.0000   YZ=              0.0000
 Traceless Quadrupole moment (field-independent basis, Debye-Ang):
   XX=              2.3905   YY=              2.3905   ZZ=             -4.7809
   XY=             -0.0000   XZ=              0.0000   YZ=              0.0000
 Octapole moment (field-independent basis, Debye-Ang**2):
  XXX=              0.0000  YYY=             -0.0000  ZZZ=             28.9660  XYY=              0.0000
  XXY=             -0.0000  XXZ=              6.5574  XZZ=              0.0000  YZZ=             -0.0000
  YYZ=              6.5574  XYZ=             -0.0000
 Hexadecapole moment (field-independent basis, Debye-Ang**3):
 XXXX=            -18.3273 YYYY=            -18.3273 ZZZZ=            -88.1853 XXXY=             -0.0000
 XXXZ=              0.0000 YYYX=             -0.0000 YYYZ=              0.0000 ZZZX=              0.0000
 ZZZY=              0.0000 XXYY=             -6.1091 XXZZ=            -15.6614 YYZZ=            -15.6614
 XXYZ=              0.0000 YYXZ=              0.0000 ZZXY=             -0.0000
 N-N= 3.068233403311D+00 E-N=-3.968229557637D+02  KE= 1.621807146330D+02
 No NMR shielding tensors so no spin-rotation constants.
 Leave Link  601 at Sat Apr 17 04:55:57 2021, MaxMem=   104857600 cpu:              40.5 elap:               0.9
 (Enter /s/ls4/users/knvvv/bin/g16sse/l801.exe)
 DoSCS=F DFT=T ScalE2(SS,OS)=  1.000000  1.000000
 Range of M.O.s used for correlation:     1    76
 NBasis=    76 NAE=     6 NBE=     6 NFC=     0 NFV=     0
 NROrb=     76 NOA=     6 NOB=     6 NVA=    70 NVB=    70
 Leave Link  801 at Sat Apr 17 04:55:57 2021, MaxMem=   104857600 cpu:               3.1 elap:               0.1
 (Enter /s/ls4/users/knvvv/bin/g16sse/l914.exe)
 RHF ground state
 Doing stability rather than CIS.
 Keep R1 and R2 ints in memory in symmetry-blocked form, NReq=86423958.
 FoFCou: FMM=F IPFlag=           0 FMFlag=           0 FMFlg1=           0
         NFxFlg=           0 DoJE=F BraDBF=F KetDBF=F FulRan=T
         wScrn=  0.000000 ICntrl=       600 IOpCl=  0 I1Cent=           0 NGrid=           0
         NMat0=    1 NMatS0=   2926 NMatT0=    0 NMatD0=    1 NMtDS0=    0 NMtDT0=    0
 Petite list used in FoFCou.
 MDV=   104857600 DFT=T DoStab=T Mixed=T DoRPA=F DoScal=F NonHer=F
 Making orbital integer symmetry assigments:
 Orbital symmetries:
       Occupied  (SG) (SG) (PI) (PI) (SG) (SG)
       Virtual   (SG) (PI) (PI) (SG) (SG) (PI) (PI) (SG) (SG) (PI)
                 (PI) (DLTA) (DLTA) (SG) (PI) (PI) (SG) (SG) (PI)
                 (PI) (DLTA) (DLTA) (PHI) (PHI) (SG) (PI) (PI)
                 (DLTA) (DLTA) (SG) (PI) (PI) (SG) (PI) (PI) (SG)
                 (SG) (SG) (DLTA) (DLTA) (PI) (PI) (SG) (PI) (PI)
                 (SG) (SG) (SG) (PHI) (PHI) (DLTA) (DLTA) (PI)
                 (PI) (SG) (DLTA) (DLTA) (PI) (PI) (SG) (PI) (PI)
                 (SG) (DLTA) (DLTA) (PI) (PI) (SG) (SG) (SG)
    24 initial guesses have been made.
 Convergence on wavefunction:    0.001000000000000
 Davidson Disk Diagonalization:  ConvIn= 1.00D-03 SkipCon=T Conv= 1.00D-03.
 Max sub-space:  1680 roots to seek:    24 dimension of matrix:          840
 Iteration     1 Dimension    24 NMult     0 NNew     24
 CISAX will form    24 AO SS matrices at one time.
 NMat=    24 NSing=    12 JSym2X= 2.
 New state      1 was old state      2
 Excitation Energies [eV] at current iteration:
 Root      1 :     3.340098470023172
 Root      2 :     4.325504540364214
 Root      3 :     4.325504540909155
 Root      4 :     4.331946294641689
 Root      5 :     4.352598370417448
 Root      6 :     4.352598370692330
 Root      7 :     4.924652773039773
 Root      8 :     5.108992952790232
 Root      9 :     5.326185750075716
 Root     10 :     5.768343021924823
 Root     11 :     5.768343022269291
 Root     12 :     6.041774724665586
 Root     13 :     6.041774724805570
 Root     14 :     6.229957534905199
 Root     15 :     7.249799476820223
 Root     16 :     7.663949670063666
 Root     17 :     8.180607912394201
 Root     18 :     8.803665713260477
 Root     19 :     8.803665713266073
 Root     20 :     8.969784825323476
 Root     21 :     9.056596914338366
 Root     22 :     9.439257878439818
 Root     23 :     9.784057423624972
 Root     24 :     9.784057423818078
 Iteration     2 Dimension    48 NMult    24 NNew     24
 CISAX will form    24 AO SS matrices at one time.
 NMat=    24 NSing=    12 JSym2X= 2.
 Root      1 not converged, maximum delta is    0.180380049210442
 Excitation Energies [eV] at current iteration:
 Root      1 :     2.665676059416555   Change is   -0.674422410606617
 Root      2 :     4.082686856496687   Change is   -0.249259438145003
 Root      3 :     4.243060307844843   Change is   -0.082444232519372
 Root      4 :     4.243060308343863   Change is   -0.082444232565292
 Root      5 :     4.243242119856422   Change is   -0.109356250561026
 Root      6 :     4.243242120090507   Change is   -0.109356250601823
 Root      7 :     4.715131958435012   Change is   -0.209520814604761
 Root      8 :     4.978762833830939   Change is   -0.130230118959293
 Root      9 :     5.289281795518362   Change is   -0.036903954557354
 Root     10 :     5.623264349861375   Change is   -0.145078672063447
 Root     11 :     5.623264350309424   Change is   -0.145078671959867
 Root     12 :     5.938728050235391   Change is   -0.103046674430195
 Root     13 :     5.938728050486454   Change is   -0.103046674319116
 Root     14 :     5.953277937473269   Change is   -0.276679597431930
 Root     15 :     7.140400614222352   Change is   -0.523549055841313
 Root     16 :     7.241255098395455   Change is   -0.008544378424768
 Root     17 :     7.698390268987943   Change is   -0.482217643406257
 Root     18 :     8.317145840116195   Change is   -1.122112038323623
 Root     19 :     8.599932260366689   Change is   -0.203733452893789
 Root     20 :     8.599932260403461   Change is   -0.203733452862611
 Root     21 :     8.638091124479951   Change is   -0.331693700843525
 Root     22 :     8.685568763284735   Change is   -0.371028151053631
 Root     23 :     9.056645121883593   Change is   -0.727412301741380
 Root     24 :     9.056645122177198   Change is   -0.727412301640881
 Iteration     3 Dimension    54 NMult    48 NNew      6
 CISAX will form     6 AO SS matrices at one time.
 NMat=     6 NSing=     3 JSym2X= 2.
 Root      1 not converged, maximum delta is    0.006336407562824
 Excitation Energies [eV] at current iteration:
 Root      1 :     2.654530119643101   Change is   -0.011145939773453
 Root      2 :     4.076969266518351   Change is   -0.005717589978335
 Root      3 :     4.242427469120348   Change is   -0.000814650736074
 Root      4 :     4.242427469354185   Change is   -0.000814650736322
 Root      5 :     4.242703658493262   Change is   -0.000356649351580
 Root      6 :     4.242703658991606   Change is   -0.000356649352257
 Iteration     4 Dimension    60 NMult    54 NNew      6
 CISAX will form     6 AO SS matrices at one time.
 NMat=     6 NSing=     3 JSym2X= 2.
 DSYEVD-2 returned Info=         121 IAlg= 4 N=    60 NDim=    60 NE2=     1615928 trying  DSYEV.
 Root      1 has converged.
 Excitation Energies [eV] at current iteration:
 Root      1 :     2.654465422017503   Change is   -0.000064697625598
 Root      2 :     4.076726558200804   Change is   -0.000242708317548
 Root      3 :     4.242417398836150   Change is   -0.000010070284198
 Root      4 :     4.242417399069974   Change is   -0.000010070284211
 Root      5 :     4.242699333115737   Change is   -0.000004325377526
 Root      6 :     4.242699333614007   Change is   -0.000004325377599
 Convergence achieved on expansion vectors.
 ***********************************************************************
 Stability analysis using <AA,BB:AA,BB> singles matrix:
 ***********************************************************************
 1PDM for each excited state written to RWF  633
 Ground to excited state transition densities written to RWF  633

 Eigenvectors of the stability matrix:
 
 Eigenvector   1:      Triplet-SG   Eigenvalue= 0.0975498  <S**2>=2.000
       6 ->  7         0.54447
       6 -> 11        -0.26173
       6 -> 14        -0.30567
       6 -> 24         0.18311
 The wavefunction is stable under the perturbations considered.
 Leave Link  914 at Sat Apr 17 04:56:06 2021, MaxMem=   104857600 cpu:             418.4 elap:               8.9
 (Enter /s/ls4/users/knvvv/bin/g16sse/l508.exe)
 The wavefunction is already stable.
 Leave Link  508 at Sat Apr 17 04:56:06 2021, MaxMem=   104857600 cpu:               2.2 elap:               0.1
 (Enter /s/ls4/users/knvvv/bin/g16sse/l601.exe)
 Copying SCF densities to generalized density rwf, IOpCl= 0 IROHF=0.

 **********************************************************************

            Population analysis using the SCF density.

 **********************************************************************

 Orbital symmetries:
       Occupied  (SG) (SG) (PI) (PI) (SG) (SG)
       Virtual   (SG) (PI) (PI) (SG) (SG) (PI) (PI) (SG) (SG) (PI)
                 (PI) (DLTA) (DLTA) (SG) (PI) (PI) (SG) (SG) (PI)
                 (PI) (DLTA) (DLTA) (PHI) (PHI) (SG) (PI) (PI)
                 (DLTA) (DLTA) (SG) (PI) (PI) (SG) (PI) (PI) (SG)
                 (SG) (SG) (DLTA) (DLTA) (PI) (PI) (SG) (PI) (PI)
                 (SG) (SG) (SG) (PHI) (PHI) (DLTA) (DLTA) (PI)
                 (PI) (SG) (DLTA) (DLTA) (PI) (PI) (SG) (PI) (PI)
                 (SG) (DLTA) (DLTA) (PI) (PI) (SG) (SG) (SG)
 The electronic state is 1-SG.
 Alpha  occ. eigenvalues --  -39.16601  -2.41708  -1.29599  -1.29599  -1.29353
 Alpha  occ. eigenvalues --   -0.22087
 Alpha virt. eigenvalues --   -0.03438   0.00112   0.00112   0.02293   0.03078
 Alpha virt. eigenvalues --    0.06446   0.06446   0.09659   0.15965   0.16392
 Alpha virt. eigenvalues --    0.16392   0.16697   0.16697   0.22446   0.28010
 Alpha virt. eigenvalues --    0.28010   0.28393   0.36601   0.45508   0.45508
 Alpha virt. eigenvalues --    0.47761   0.47761   0.47890   0.47890   0.55865
 Alpha virt. eigenvalues --    0.61934   0.61934   0.65570   0.65571   0.73088
 Alpha virt. eigenvalues --    0.83771   0.83771   0.94472   1.00401   1.00401
 Alpha virt. eigenvalues --    1.06463   1.17021   1.39011   1.97941   1.97942
 Alpha virt. eigenvalues --    2.06406   2.06406   2.30429   2.44896   2.44896
 Alpha virt. eigenvalues --    2.76408   5.03183   5.48518   5.52732   5.52732
 Alpha virt. eigenvalues --    5.54045   5.54051   5.57172   5.57172   5.76896
 Alpha virt. eigenvalues --    5.94756   5.94757   5.96575   5.96575   6.01356
 Alpha virt. eigenvalues --    7.23731   7.23731   7.37800   7.45426   7.45430
 Alpha virt. eigenvalues --    7.60314   7.60314   7.86998  21.08369 126.02831
          Condensed to atoms (all electrons):
               1          2
     1  Na  10.296731   0.347395
     2  H    0.347395   1.008479
 Mulliken charges:
               1
     1  Na   0.355874
     2  H   -0.355874
 Sum of Mulliken charges =  -0.00000
 Mulliken charges with hydrogens summed into heavy atoms:
               1
     1  Na  -0.000000
 Electronic spatial extent (au):  <R**2>=             36.5440
 Charge=             -0.0000 electrons
 Dipole moment (field-independent basis, Debye):
    X=              0.0000    Y=             -0.0000    Z=              6.4782  Tot=              6.4782
 Quadrupole moment (field-independent basis, Debye-Ang):
   XX=             -8.7115   YY=             -8.7115   ZZ=            -15.8828
   XY=             -0.0000   XZ=              0.0000   YZ=              0.0000
 Traceless Quadrupole moment (field-independent basis, Debye-Ang):
   XX=              2.3905   YY=              2.3905   ZZ=             -4.7809
   XY=             -0.0000   XZ=              0.0000   YZ=              0.0000
 Octapole moment (field-independent basis, Debye-Ang**2):
  XXX=              0.0000  YYY=             -0.0000  ZZZ=             28.9660  XYY=              0.0000
  XXY=             -0.0000  XXZ=              6.5574  XZZ=              0.0000  YZZ=             -0.0000
  YYZ=              6.5574  XYZ=             -0.0000
 Hexadecapole moment (field-independent basis, Debye-Ang**3):
 XXXX=            -18.3273 YYYY=            -18.3273 ZZZZ=            -88.1853 XXXY=             -0.0000
 XXXZ=              0.0000 YYYX=             -0.0000 YYYZ=              0.0000 ZZZX=              0.0000
 ZZZY=              0.0000 XXYY=             -6.1091 XXZZ=            -15.6614 YYZZ=            -15.6614
 XXYZ=              0.0000 YYXZ=              0.0000 ZZXY=             -0.0000
 N-N= 3.068233403311D+00 E-N=-3.968229557637D+02  KE= 1.621807146330D+02
 No NMR shielding tensors so no spin-rotation constants.
 Leave Link  601 at Sat Apr 17 04:56:07 2021, MaxMem=   104857600 cpu:              40.9 elap:               0.9
 (Enter /s/ls4/users/knvvv/bin/g16sse/l9999.exe)

 Test job not archived.
 1\1\GINC-N178\Stability\RM062X\def2QZVP\H1Na1\KNVVV\17-Apr-2021\0\\#P 
 M062X/Def2QZVP Integral=UltraFineGrid SCF=NoSymm Stable=(RExt, Opt) IO
 p(1/33=1)\\Database calculations.\\0,1\Na,0,0.,0.,-0.9485832\H,0,0.,0.
 ,0.9485832\\Version=ES64L-G16RevA.03\State=1-SG\HF=-162.8237332\RMSD=3
 .601e-09\Dipole=0.,0.,-2.5487238\Quadrupole=1.777245,1.777245,-3.55449
 01,0.,0.,0.\PG=C*V [C*(H1Na1)]\\@


 THE POLHOLDE ROLLS WITHOUT SLIPPING ON THE HERPOLHOLDE LYING IN
 THE INVARIABLE PLANE.
 H.GOLDSTEIN, "CLASSICAL MECHANICS", PG 161
 Job cpu time:       0 days  0 hours 21 minutes 56.2 seconds.
 Elapsed time:       0 days  0 hours  0 minutes 28.4 seconds.
 File lengths (MBytes):  RWF=     36 Int=      0 D2E=      0 Chk=      2 Scr=      1
 Normal termination of Gaussian 16 at Sat Apr 17 04:56:08 2021.
