 Entering Gaussian System, Link 0=/s/ls4/users/knvvv/bin/g16sse/g16
 Input=data/database/M062X--def2-QZVPPD--128_c2h4_W4-11.gjf
 Output=data/database/M062X--def2-QZVPPD--128_c2h4_W4-11.log
 Initial command:
 /s/ls4/users/knvvv/bin/g16sse/l1.exe "/s/ls4/users/knvvv/bin/scratch/Gau-8871.inp" -scrdir="/s/ls4/users/knvvv/bin/scratch/"
 Entering Link 1 = /s/ls4/users/knvvv/bin/g16sse/l1.exe PID=      8872.
  
 Copyright (c) 1988,1990,1992,1993,1995,1998,2003,2009,2016,
            Gaussian, Inc.  All Rights Reserved.
  
 This is part of the Gaussian(R) 16 program.  It is based on
 the Gaussian(R) 09 system (copyright 2009, Gaussian, Inc.),
 the Gaussian(R) 03 system (copyright 2003, Gaussian, Inc.),
 the Gaussian(R) 98 system (copyright 1998, Gaussian, Inc.),
 the Gaussian(R) 94 system (copyright 1995, Gaussian, Inc.),
 the Gaussian 92(TM) system (copyright 1992, Gaussian, Inc.),
 the Gaussian 90(TM) system (copyright 1990, Gaussian, Inc.),
 the Gaussian 88(TM) system (copyright 1988, Gaussian, Inc.),
 the Gaussian 86(TM) system (copyright 1986, Carnegie Mellon
 University), and the Gaussian 82(TM) system (copyright 1983,
 Carnegie Mellon University). Gaussian is a federally registered
 trademark of Gaussian, Inc.
  
 This software contains proprietary and confidential information,
 including trade secrets, belonging to Gaussian, Inc.
  
 This software is provided under written license and may be
 used, copied, transmitted, or stored only in accord with that
 written license.
  
 The following legend is applicable only to US Government
 contracts under FAR:
  
                    RESTRICTED RIGHTS LEGEND
  
 Use, reproduction and disclosure by the US Government is
 subject to restrictions as set forth in subparagraphs (a)
 and (c) of the Commercial Computer Software - Restricted
 Rights clause in FAR 52.227-19.
  
 Gaussian, Inc.
 340 Quinnipiac St., Bldg. 40, Wallingford CT 06492
  
  
 ---------------------------------------------------------------
 Warning -- This program may not be used in any manner that
 competes with the business of Gaussian, Inc. or will provide
 assistance to any competitor of Gaussian, Inc.  The licensee
 of this program is prohibited from giving any competitor of
 Gaussian, Inc. access to this program.  By using this program,
 the user acknowledges that Gaussian, Inc. is engaged in the
 business of creating and licensing software in the field of
 computational chemistry and represents and warrants to the
 licensee that it is not a competitor of Gaussian, Inc. and that
 it will not use this program in any manner prohibited above.
 ---------------------------------------------------------------
  

 Cite this work as:
 Gaussian 16, Revision A.03,
 M. J. Frisch, G. W. Trucks, H. B. Schlegel, G. E. Scuseria, 
 M. A. Robb, J. R. Cheeseman, G. Scalmani, V. Barone, 
 G. A. Petersson, H. Nakatsuji, X. Li, M. Caricato, A. V. Marenich, 
 J. Bloino, B. G. Janesko, R. Gomperts, B. Mennucci, H. P. Hratchian, 
 J. V. Ortiz, A. F. Izmaylov, J. L. Sonnenberg, D. Williams-Young, 
 F. Ding, F. Lipparini, F. Egidi, J. Goings, B. Peng, A. Petrone, 
 T. Henderson, D. Ranasinghe, V. G. Zakrzewski, J. Gao, N. Rega, 
 G. Zheng, W. Liang, M. Hada, M. Ehara, K. Toyota, R. Fukuda, 
 J. Hasegawa, M. Ishida, T. Nakajima, Y. Honda, O. Kitao, H. Nakai, 
 T. Vreven, K. Throssell, J. A. Montgomery, Jr., J. E. Peralta, 
 F. Ogliaro, M. J. Bearpark, J. J. Heyd, E. N. Brothers, K. N. Kudin, 
 V. N. Staroverov, T. A. Keith, R. Kobayashi, J. Normand, 
 K. Raghavachari, A. P. Rendell, J. C. Burant, S. S. Iyengar, 
 J. Tomasi, M. Cossi, J. M. Millam, M. Klene, C. Adamo, R. Cammi, 
 J. W. Ochterski, R. L. Martin, K. Morokuma, O. Farkas, 
 J. B. Foresman, and D. J. Fox, Gaussian, Inc., Wallingford CT, 2016.
 
 ******************************************
 Gaussian 16:  ES64L-G16RevA.03 25-Dec-2016
                17-Apr-2021 
 ******************************************
 %RWF=temp10_21130,70GB
 %nprocshared=48
 Will use up to   48 processors via shared memory.
 Default route: MaxDisk=80GB
 ----------------------------------------------------------------------
 #P M062X/GEN Integral=UltraFineGrid SCF=NoSymm Stable=(RExt, Opt) IOp(
 1/33=1)
 ----------------------------------------------------------------------
 1/33=1,38=1,172=1/1;
 2/12=2,17=6,18=5,40=1/2;
 3/5=7,11=2,25=1,30=1,74=-55,75=-5/1,2,3;
 4/9=2/1;
 5/5=2,38=5/2;
 6/7=2,8=2,9=2,10=2,28=1/1;
 8/6=1,10=90,11=11/1;
 9/8=-3,42=1,46=1/14;
 5/5=2,8=3,17=40,38=5/8(-2);
 6/7=2,8=2,9=2,10=2,28=1/1;
 99/5=1,9=1/99;
 Leave Link    1 at Sat Apr 17 06:11:14 2021, MaxMem=           0 cpu:               8.3 elap:               0.2
 (Enter /s/ls4/users/knvvv/bin/g16sse/l101.exe)
 ONIOM data not found on unit 2.
 ----------------------
 Database calculations.
 ----------------------
 TstMul:  ICh=     0
 TstMul:  Mul=     1
 TstMul:  ICh=     0
 TstMul:  Mul=     1
 Symbolic Z-matrix:
 Charge =  0 Multiplicity = 1
 C                     0.        0.        0. 
 C                     0.        0.        1.3342 
 H                     0.9234    0.        1.89873 
 H                    -0.9234    0.        1.89873 
 H                     0.9234    0.       -0.56453 
 H                    -0.9234    0.       -0.56453 
 
 RdStrC is calling ZToCFu for IStruc=1 NZ=     6.
 PrtBox:  NBox=     1 Levels=  1 BoxLen=    8.00 SMaxX=        4.65
          Shift=            1.744981            0.000000            1.066814
 Box      1 Number                   0 centers from      1 to      6:
 After GenITR:
 ITRead=  0  0  0  0  0  0
 MicOpt= -1 -1 -1 -1 -1 -1
 ITRead=  0  0  0  0  0  0
 MicOpt= -1 -1 -1 -1 -1 -1
 NAtoms=      6 NQM=        6 NQMF=       0 NMMI=      0 NMMIF=      0
                NMic=       0 NMicF=      0.
                    Isotopes and Nuclear Properties:
 (Nuclear quadrupole moments (NQMom) in fm**2, nuclear magnetic moments (NMagM)
  in nuclear magnetons)

  Atom         1           2           3           4           5           6
 IAtWgt=          12          12           1           1           1           1
 AtmWgt=  12.0000000  12.0000000   1.0078250   1.0078250   1.0078250   1.0078250
 NucSpn=           0           0           1           1           1           1
 AtZEff=  -0.0000000  -0.0000000  -0.0000000  -0.0000000  -0.0000000  -0.0000000
 NQMom=    0.0000000   0.0000000   0.0000000   0.0000000   0.0000000   0.0000000
 NMagM=    0.0000000   0.0000000   2.7928460   2.7928460   2.7928460   2.7928460
 AtZNuc=   6.0000000   6.0000000   1.0000000   1.0000000   1.0000000   1.0000000
 No MM parameters found.
 Leave Link  101 at Sat Apr 17 06:11:14 2021, MaxMem=   104857600 cpu:               7.0 elap:               0.2
 (Enter /s/ls4/users/knvvv/bin/g16sse/l202.exe)
                          Input orientation:                          
 ---------------------------------------------------------------------
 Center     Atomic      Atomic             Coordinates (Angstroms)
 Number     Number       Type             X           Y           Z
 ---------------------------------------------------------------------
      1          6           0        0.000000    0.000000    0.000000
      2          6           0        0.000000    0.000000    1.334200
      3          1           0        0.923404    0.000000    1.898734
      4          1           0       -0.923404    0.000000    1.898734
      5          1           0        0.923404    0.000000   -0.564534
      6          1           0       -0.923404    0.000000   -0.564534
 ---------------------------------------------------------------------
                    Distance matrix (angstroms):
                    1          2          3          4          5
     1  C    0.000000
     2  C    1.334200   0.000000
     3  H    2.111365   1.082300   0.000000
     4  H    2.111365   1.082300   1.846808   0.000000
     5  H    1.082300   2.111365   2.463267   3.078699   0.000000
     6  H    1.082300   2.111365   3.078699   2.463267   1.846808
                    6
     6  H    0.000000
 Stoichiometry    C2H4
 Framework group  D2H[C2"(C.C),SG(H4)]
 Deg. of freedom     3
 Full point group                 D2H     NOp   8
 Largest Abelian subgroup         D2H     NOp   8
 Largest concise Abelian subgroup D2      NOp   4
                         Standard orientation:                         
 ---------------------------------------------------------------------
 Center     Atomic      Atomic             Coordinates (Angstroms)
 Number     Number       Type             X           Y           Z
 ---------------------------------------------------------------------
      1          6           0       -0.000000    0.000000    0.667100
      2          6           0        0.000000    0.000000   -0.667100
      3          1           0        0.000000    0.923404   -1.231634
      4          1           0       -0.000000   -0.923404   -1.231634
      5          1           0       -0.000000    0.923404    1.231634
      6          1           0       -0.000000   -0.923404    1.231634
 ---------------------------------------------------------------------
 Rotational constants (GHZ):         147.0240683          30.0897815          24.9778439
 Leave Link  202 at Sat Apr 17 06:11:14 2021, MaxMem=   104857600 cpu:              10.3 elap:               0.2
 (Enter /s/ls4/users/knvvv/bin/g16sse/l301.exe)
 General basis read from cards:  (5D, 7F)
 Centers:       3      4      5      6
 S 4 1.00
     Exponent=  1.9069169000D+02 Coefficients=  7.0815167000D-04
     Exponent=  2.8605532000D+01 Coefficients=  5.4678827000D-03
     Exponent=  6.5095943000D+00 Coefficients=  2.7966605000D-02
     Exponent=  1.8412455000D+00 Coefficients=  1.0764538000D-01
 S 1 1.00
     Exponent=  5.9853725000D-01 Coefficients=  1.0000000000D+00
 S 1 1.00
     Exponent=  2.1397624000D-01 Coefficients=  1.0000000000D+00
 S 1 1.00
     Exponent=  8.0316286000D-02 Coefficients=  1.0000000000D+00
 P 1 1.00
     Exponent=  2.2920000000D+00 Coefficients=  1.0000000000D+00
 P 1 1.00
     Exponent=  8.3800000000D-01 Coefficients=  1.0000000000D+00
 P 1 1.00
     Exponent=  2.9200000000D-01 Coefficients=  1.0000000000D+00
 P 1 1.00
     Exponent=  8.4063199228D-02 Coefficients=  1.0000000000D+00
 D 1 1.00
     Exponent=  2.0620000000D+00 Coefficients=  1.0000000000D+00
 D 1 1.00
     Exponent=  6.6200000000D-01 Coefficients=  1.0000000000D+00
 F 1 1.00
     Exponent=  1.3970000000D+00 Coefficients=  1.0000000000D+00
 ****
 Centers:       1      2
 S 8 1.00
     Exponent=  6.7025071029D+04 Coefficients=  3.8736308501D-05
     Exponent=  1.0039986538D+04 Coefficients=  3.0107917575D-04
     Exponent=  2.2849316911D+03 Coefficients=  1.5787918095D-03
     Exponent=  6.4714122130D+02 Coefficients=  6.6087087195D-03
     Exponent=  2.1109472335D+02 Coefficients=  2.3367123250D-02
     Exponent=  7.6177643862D+01 Coefficients=  7.0420716898D-02
     Exponent=  2.9633839163D+01 Coefficients=  1.7360344953D-01
     Exponent=  1.2187785081D+01 Coefficients=  3.2292305648D-01
 S 2 1.00
     Exponent=  5.3026006299D+01 Coefficients=  7.4897404492D-02
     Exponent=  1.5258502776D+01 Coefficients=  7.6136220983D-01
 S 1 1.00
     Exponent=  5.2403957464D+00 Coefficients=  1.0000000000D+00
 S 1 1.00
     Exponent=  2.2905022379D+00 Coefficients=  1.0000000000D+00
 S 1 1.00
     Exponent=  6.9673283006D-01 Coefficients=  1.0000000000D+00
 S 1 1.00
     Exponent=  2.7599337363D-01 Coefficients=  1.0000000000D+00
 S 1 1.00
     Exponent=  1.0739884389D-01 Coefficients=  1.0000000000D+00
 S 1 1.00
     Exponent=  4.4981404899D-02 Coefficients=  1.0000000000D+00
 P 5 1.00
     Exponent=  1.0512555082D+02 Coefficients=  8.4647553844D-04
     Exponent=  2.4884461066D+01 Coefficients=  6.6274038534D-03
     Exponent=  7.8637230826D+00 Coefficients=  3.0120390419D-02
     Exponent=  2.8407001835D+00 Coefficients=  9.9951435476D-02
     Exponent=  1.1227137335D+00 Coefficients=  2.3826299282D-01
 P 1 1.00
     Exponent=  4.6050725555D-01 Coefficients=  1.0000000000D+00
 P 1 1.00
     Exponent=  1.8937530913D-01 Coefficients=  1.0000000000D+00
 P 1 1.00
     Exponent=  7.5983791611D-02 Coefficients=  1.0000000000D+00
 D 1 1.00
     Exponent=  1.8480000000D+00 Coefficients=  1.0000000000D+00
 D 1 1.00
     Exponent=  6.4900000000D-01 Coefficients=  1.0000000000D+00
 D 1 1.00
     Exponent=  2.2800000000D-01 Coefficients=  1.0000000000D+00
 D 1 1.00
     Exponent=  7.6889830417D-02 Coefficients=  1.0000000000D+00
 F 1 1.00
     Exponent=  1.4190000000D+00 Coefficients=  1.0000000000D+00
 F 1 1.00
     Exponent=  4.8500000000D-01 Coefficients=  1.0000000000D+00
 G 1 1.00
     Exponent=  1.0110000000D+00 Coefficients=  1.0000000000D+00
 ****
 Ernie: Thresh=  0.10000D-02 Tol=  0.10000D-05 Strict=F.
 There are    62 symmetry adapted cartesian basis functions of AG  symmetry.
 There are    21 symmetry adapted cartesian basis functions of B1G symmetry.
 There are    29 symmetry adapted cartesian basis functions of B2G symmetry.
 There are    43 symmetry adapted cartesian basis functions of B3G symmetry.
 There are    21 symmetry adapted cartesian basis functions of AU  symmetry.
 There are    62 symmetry adapted cartesian basis functions of B1U symmetry.
 There are    43 symmetry adapted cartesian basis functions of B2U symmetry.
 There are    29 symmetry adapted cartesian basis functions of B3U symmetry.
 There are    49 symmetry adapted basis functions of AG  symmetry.
 There are    19 symmetry adapted basis functions of B1G symmetry.
 There are    25 symmetry adapted basis functions of B2G symmetry.
 There are    36 symmetry adapted basis functions of B3G symmetry.
 There are    19 symmetry adapted basis functions of AU  symmetry.
 There are    49 symmetry adapted basis functions of B1U symmetry.
 There are    36 symmetry adapted basis functions of B2U symmetry.
 There are    25 symmetry adapted basis functions of B3U symmetry.
   258 basis functions,   362 primitive gaussians,   310 cartesian basis functions
     8 alpha electrons        8 beta electrons
       nuclear repulsion energy        33.3746854297 Hartrees.
 IExCor= 4336 DFT=T Ex+Corr=M062X ExCW=0 ScaHFX=  0.540000
 ScaDFX=  1.000000  1.000000  1.000000  1.000000 ScalE2=  1.000000  1.000000
 IRadAn=      5 IRanWt=     -1 IRanGd=            0 ICorTp=0 IEmpDi=  4
 NAtoms=    6 NActive=    6 NUniq=    2 SFac= 4.00D+00 NAtFMM=   60 NAOKFM=F Big=F
 Integral buffers will be    131072 words long.
 Raffenetti 2 integral format.
 Two-electron integral symmetry is turned on.
 Leave Link  301 at Sat Apr 17 06:11:15 2021, MaxMem=   104857600 cpu:               7.0 elap:               0.2
 (Enter /s/ls4/users/knvvv/bin/g16sse/l302.exe)
 NPDir=0 NMtPBC=     1 NCelOv=     1 NCel=       1 NClECP=     1 NCelD=      1
         NCelK=      1 NCelE2=     1 NClLst=     1 CellRange=     0.0.
 One-electron integrals computed using PRISM.
 One-electron integral symmetry used in STVInt
 PrsmSu:  requested number of processors reduced to:   4 ShMem   1 Linda.
 PrsmSu:  requested number of processors reduced to:  21 ShMem   1 Linda.
 NBasis=   258 RedAO= T EigKep=  1.64D-06  NBF=    49    19    25    36    19    49    36    25
 NBsUse=   257 1.00D-06 EigRej=  2.14D-07 NBFU=    49    19    25    36    19    48    36    25
 Precomputing XC quadrature grid using
 IXCGrd= 4 IRadAn=           5 IRanWt=          -1 IRanGd=           0 AccXCQ= 0.00D+00.
 Generated NRdTot=       0 NPtTot=           0 NUsed=           0 NTot=          32
 NSgBfM=   310   310   310   310   310 MxSgAt=     6 MxSgA2=     6.
 Leave Link  302 at Sat Apr 17 06:11:33 2021, MaxMem=   104857600 cpu:             857.3 elap:              18.3
 (Enter /s/ls4/users/knvvv/bin/g16sse/l303.exe)
 DipDrv:  MaxL=1.
 Leave Link  303 at Sat Apr 17 06:11:34 2021, MaxMem=   104857600 cpu:              47.2 elap:               1.0
 (Enter /s/ls4/users/knvvv/bin/g16sse/l401.exe)
 SCF N**3 symmetry information disabled.
 ExpMin= 4.50D-02 ExpMax= 6.70D+04 ExpMxC= 6.47D+02 IAcc=3 IRadAn=         5 AccDes= 0.00D+00
 Harris functional with IExCor= 1009 and IRadAn=       5 diagonalized for initial guess.
 HarFok:  IExCor= 1009 AccDes= 0.00D+00 IRadAn=         5 IDoV= 1 UseB2=F ITyADJ=14
 ICtDFT=  3500011 ScaDFX=  1.000000  1.000000  1.000000  1.000000
 FoFCou: FMM=F IPFlag=           0 FMFlag=      100000 FMFlg1=           0
         NFxFlg=           0 DoJE=T BraDBF=F KetDBF=T FulRan=T
         wScrn=  0.000000 ICntrl=       500 IOpCl=  0 I1Cent=   200000004 NGrid=           0
         NMat0=    1 NMatS0=      1 NMatT0=    0 NMatD0=    1 NMtDS0=    0 NMtDT0=    0
 Petite list used in FoFCou.
 CoulSu:  requested number of processors reduced to:  21 ShMem   1 Linda.
 CoulSu:  requested number of processors reduced to:  21 ShMem   1 Linda.
 CoulSu:  requested number of processors reduced to:  21 ShMem   1 Linda.
 CoulSu:  requested number of processors reduced to:  21 ShMem   1 Linda.
 Harris En= -78.5880844368105    
 JPrj=0 DoOrth=F DoCkMO=F.
 Initial guess orbital symmetries:
       Occupied  (AG) (B1U) (AG) (B1U) (B2U) (AG) (B3G) (B3U)
       Virtual   (B2G) (AG) (B1U) (B2U) (AG) (B3G) (AG) (B3U) (B1G)
                 (B1U) (B2U) (B2G) (B1U) (AG) (AU) (B1U) (B2U)
                 (B3U) (B2U) (B3U) (AG) (B3G) (B1U) (AG) (B3G)
                 (B1G) (AG) (B2G) (B3G) (B1U) (B2U) (B2G) (B1U)
                 (AG) (AU) (B1G) (B2U) (B1U) (B3U) (B1U) (B3G)
                 (AG) (AG) (B3G) (AU) (B2G) (B2U) (B3U) (AG) (B1U)
                 (B2U) (B3G) (B3U) (B1G) (B1U) (B3G) (B2U) (AG)
                 (B2G) (B2G) (B1U) (AG) (B1U) (AU) (B2U) (B3G)
                 (AG) (B1U) (AG) (B2U) (B3G) (B1U) (B3U) (B3G)
                 (B1G) (AG) (B3U) (AG) (B2U) (B1G) (AU) (B3G) (B2G)
                 (AG) (B1U) (B2U) (AU) (B1U) (B2U) (B3U) (B2G)
                 (B1G) (B1U) (B3G) (AG) (B3U) (B2G) (AU) (B2G)
                 (AG) (B2U) (B3U) (B1U) (B3G) (B1G) (AG) (B3G)
                 (B1U) (B1U) (B2U) (AG) (B2G) (B3U) (B3G) (B2U)
                 (AU) (B1U) (AG) (AG) (B3U) (B1U) (B1G) (B2U) (B3G)
                 (B2G) (AU) (AG) (B2U) (AG) (B3G) (B1U) (B2G) (B1U)
                 (B3G) (B2U) (B3G) (AG) (B3U) (B1U) (B2U) (B1G)
                 (AG) (B1G) (B3U) (B2U) (B2G) (AU) (B1U) (B1G)
                 (B3U) (AG) (AU) (B2U) (B3G) (B2G) (B1U) (B3G)
                 (AG) (AU) (B2G) (B1G) (B2U) (B3G) (B1U) (B3U)
                 (B3U) (B3G) (B2G) (AG) (B2U) (AG) (AU) (AG) (B2U)
                 (B1U) (B1U) (B1G) (B3U) (B1U) (AU) (B3G) (B2G)
                 (B1U) (AG) (B3G) (AG) (B3U) (B2U) (B2G) (B1U)
                 (B1G) (AU) (B3U) (B2G) (B2U) (B1G) (B1U) (AG)
                 (B3G) (AG) (B1U) (B3G) (AG) (B2U) (AU) (B1U) (AG)
                 (B3U) (B1G) (B1U) (B3G) (B2G) (B1U) (B2U) (AG)
                 (B1G) (B3G) (B2U) (B3U) (AU) (B2G) (B2G) (B3G)
                 (AU) (AG) (B2U) (B1U) (B2U) (AG) (B3U) (B1G) (B3G)
                 (B1U) (AU) (AG) (B3G) (B2G) (B1U) (B2U) (B3G)
                 (B2U) (B1U) (B3G) (AG) (B1U) (AG) (B1U) (AG) (B1U)
 The electronic state of the initial guess is 1-AG.
 Leave Link  401 at Sat Apr 17 06:11:42 2021, MaxMem=   104857600 cpu:             383.4 elap:               8.4
 (Enter /s/ls4/users/knvvv/bin/g16sse/l502.exe)
 Integral symmetry usage will be decided dynamically.
 Closed shell SCF:
 Using DIIS extrapolation, IDIIS=  1040.
 NGot=   104857600 LenX=   104643424 LenY=   104546883
 Requested convergence on RMS density matrix=1.00D-08 within 128 cycles.
 Requested convergence on MAX density matrix=1.00D-06.
 Requested convergence on             energy=1.00D-06.
 No special actions if energy rises.
 Fock matrices will be formed incrementally for  20 cycles.

 Cycle   1  Pass 1  IDiag  1:
 FoFJK:  IHMeth= 1 ICntrl=       0 DoSepK=F KAlg= 0 I1Cent=           0 FoldK=F
 IRaf= 990000000 NMat=       1 IRICut=       1 DoRegI=T DoRafI=F ISym2E= 1 IDoP0=0 IntGTp=1.
 FoFCou: FMM=F IPFlag=           0 FMFlag=      100000 FMFlg1=           0
         NFxFlg=           0 DoJE=F BraDBF=F KetDBF=F FulRan=T
         wScrn=  0.000000 ICntrl=         0 IOpCl=  0 I1Cent=           0 NGrid=           0
         NMat0=    1 NMatS0=      1 NMatT0=    0 NMatD0=    1 NMtDS0=    0 NMtDT0=    0
 Petite list used in FoFCou.
 CoulSu:  requested number of processors reduced to:  21 ShMem   1 Linda.
 E= -78.4800750729334    
 DIIS: error= 3.95D-02 at cycle   1 NSaved=   1.
 NSaved= 1 IEnMin= 1 EnMin= -78.4800750729334     IErMin= 1 ErrMin= 3.95D-02
 ErrMax= 3.95D-02  0.00D+00 EMaxC= 1.00D-01 BMatC= 1.33D-01 BMatP= 1.33D-01
 IDIUse=3 WtCom= 6.05D-01 WtEn= 3.95D-01
 Coeff-Com:  0.100D+01
 Coeff-En:   0.100D+01
 Coeff:      0.100D+01
 Gap=     0.373 Goal=   None    Shift=    0.000
 GapD=    0.373 DampG=1.000 DampE=0.500 DampFc=0.5000 IDamp=-1.
 Damping current iteration by 5.00D-01
 RMSDP=2.08D-03 MaxDP=5.81D-02              OVMax= 1.79D-01

 Cycle   2  Pass 1  IDiag  1:
 RMSU=  8.67D-04    CP:  8.80D-01
 CoulSu:  requested number of processors reduced to:  21 ShMem   1 Linda.
 E= -78.5327412678402     Delta-E=       -0.052666194907 Rises=F Damp=T
 DIIS: error= 1.34D-02 at cycle   2 NSaved=   2.
 NSaved= 2 IEnMin= 2 EnMin= -78.5327412678402     IErMin= 2 ErrMin= 1.34D-02
 ErrMax= 1.34D-02  0.00D+00 EMaxC= 1.00D-01 BMatC= 1.21D-02 BMatP= 1.33D-01
 IDIUse=3 WtCom= 8.66D-01 WtEn= 1.34D-01
 Coeff-Com: -0.199D+00 0.120D+01
 Coeff-En:   0.000D+00 0.100D+01
 Coeff:     -0.172D+00 0.117D+01
 Gap=     0.358 Goal=   None    Shift=    0.000
 RMSDP=2.43D-03 MaxDP=7.63D-02 DE=-5.27D-02 OVMax= 8.80D-02

 Cycle   3  Pass 1  IDiag  1:
 RMSU=  1.96D-03    CP:  7.58D-01  2.51D+00
 CoulSu:  requested number of processors reduced to:  21 ShMem   1 Linda.
 E= -78.5800153284132     Delta-E=       -0.047274060573 Rises=F Damp=F
 DIIS: error= 3.47D-03 at cycle   3 NSaved=   3.
 NSaved= 3 IEnMin= 3 EnMin= -78.5800153284132     IErMin= 3 ErrMin= 3.47D-03
 ErrMax= 3.47D-03  0.00D+00 EMaxC= 1.00D-01 BMatC= 4.96D-04 BMatP= 1.21D-02
 IDIUse=3 WtCom= 9.65D-01 WtEn= 3.47D-02
 Coeff-Com: -0.747D-01 0.172D+00 0.902D+00
 Coeff-En:   0.000D+00 0.000D+00 0.100D+01
 Coeff:     -0.721D-01 0.166D+00 0.906D+00
 Gap=     0.352 Goal=   None    Shift=    0.000
 RMSDP=1.40D-04 MaxDP=7.92D-03 DE=-4.73D-02 OVMax= 7.62D-03

 Cycle   4  Pass 1  IDiag  1:
 RMSU=  1.26D-04    CP:  7.48D-01  2.54D+00  9.86D-01
 CoulSu:  requested number of processors reduced to:  21 ShMem   1 Linda.
 E= -78.5805060468231     Delta-E=       -0.000490718410 Rises=F Damp=F
 DIIS: error= 3.36D-04 at cycle   4 NSaved=   4.
 NSaved= 4 IEnMin= 4 EnMin= -78.5805060468231     IErMin= 4 ErrMin= 3.36D-04
 ErrMax= 3.36D-04  0.00D+00 EMaxC= 1.00D-01 BMatC= 4.76D-06 BMatP= 4.96D-04
 IDIUse=3 WtCom= 9.97D-01 WtEn= 3.36D-03
 Coeff-Com: -0.199D-03 0.134D-02 0.723D-01 0.927D+00
 Coeff-En:   0.000D+00 0.000D+00 0.000D+00 0.100D+01
 Coeff:     -0.199D-03 0.134D-02 0.721D-01 0.927D+00
 Gap=     0.352 Goal=   None    Shift=    0.000
 RMSDP=4.34D-05 MaxDP=1.79D-03 DE=-4.91D-04 OVMax= 7.57D-04

 Cycle   5  Pass 1  IDiag  1:
 RMSU=  2.64D-05    CP:  7.48D-01  2.53D+00  9.69D-01  1.00D+00
 CoulSu:  requested number of processors reduced to:  21 ShMem   1 Linda.
 E= -78.5805101125649     Delta-E=       -0.000004065742 Rises=F Damp=F
 DIIS: error= 4.02D-05 at cycle   5 NSaved=   5.
 NSaved= 5 IEnMin= 5 EnMin= -78.5805101125649     IErMin= 5 ErrMin= 4.02D-05
 ErrMax= 4.02D-05  0.00D+00 EMaxC= 1.00D-01 BMatC= 1.28D-07 BMatP= 4.76D-06
 IDIUse=1 WtCom= 1.00D+00 WtEn= 0.00D+00
 Coeff-Com:  0.280D-02-0.614D-02-0.223D-01 0.718D-01 0.954D+00
 Coeff:      0.280D-02-0.614D-02-0.223D-01 0.718D-01 0.954D+00
 Gap=     0.353 Goal=   None    Shift=    0.000
 RMSDP=3.61D-06 MaxDP=2.54D-04 DE=-4.07D-06 OVMax= 1.15D-04

 Cycle   6  Pass 1  IDiag  1:
 RMSU=  1.47D-06    CP:  7.48D-01  2.53D+00  9.69D-01  1.02D+00  1.08D+00
 CoulSu:  requested number of processors reduced to:  21 ShMem   1 Linda.
 E= -78.5805102231776     Delta-E=       -0.000000110613 Rises=F Damp=F
 DIIS: error= 4.66D-06 at cycle   6 NSaved=   6.
 NSaved= 6 IEnMin= 6 EnMin= -78.5805102231776     IErMin= 6 ErrMin= 4.66D-06
 ErrMax= 4.66D-06  0.00D+00 EMaxC= 1.00D-01 BMatC= 1.15D-09 BMatP= 1.28D-07
 IDIUse=1 WtCom= 1.00D+00 WtEn= 0.00D+00
 Coeff-Com: -0.224D-03 0.365D-03 0.129D-02-0.801D-02-0.520D-01 0.106D+01
 Coeff:     -0.224D-03 0.365D-03 0.129D-02-0.801D-02-0.520D-01 0.106D+01
 Gap=     0.353 Goal=   None    Shift=    0.000
 RMSDP=1.44D-06 MaxDP=6.30D-05 DE=-1.11D-07 OVMax= 1.79D-05

 Cycle   7  Pass 1  IDiag  1:
 RMSU=  4.69D-07    CP:  7.48D-01  2.53D+00  9.69D-01  1.02D+00  1.06D+00
                    CP:  1.16D+00
 CoulSu:  requested number of processors reduced to:  21 ShMem   1 Linda.
 E= -78.5805102247142     Delta-E=       -0.000000001537 Rises=F Damp=F
 DIIS: error= 1.00D-06 at cycle   7 NSaved=   7.
 NSaved= 7 IEnMin= 7 EnMin= -78.5805102247142     IErMin= 7 ErrMin= 1.00D-06
 ErrMax= 1.00D-06  0.00D+00 EMaxC= 1.00D-01 BMatC= 2.13D-11 BMatP= 1.15D-09
 IDIUse=1 WtCom= 1.00D+00 WtEn= 0.00D+00
 Coeff-Com: -0.371D-04 0.823D-04 0.110D-03-0.203D-02-0.148D-01 0.818D-02
 Coeff-Com:  0.101D+01
 Coeff:     -0.371D-04 0.823D-04 0.110D-03-0.203D-02-0.148D-01 0.818D-02
 Coeff:      0.101D+01
 Gap=     0.353 Goal=   None    Shift=    0.000
 RMSDP=2.25D-07 MaxDP=8.82D-06 DE=-1.54D-09 OVMax= 3.60D-06

 Cycle   8  Pass 1  IDiag  1:
 RMSU=  4.99D-08    CP:  7.48D-01  2.53D+00  9.69D-01  1.02D+00  1.06D+00
                    CP:  1.17D+00  1.03D+00
 CoulSu:  requested number of processors reduced to:  21 ShMem   1 Linda.
 E= -78.5805102247549     Delta-E=       -0.000000000041 Rises=F Damp=F
 DIIS: error= 6.82D-08 at cycle   8 NSaved=   8.
 NSaved= 8 IEnMin= 8 EnMin= -78.5805102247549     IErMin= 8 ErrMin= 6.82D-08
 ErrMax= 6.82D-08  0.00D+00 EMaxC= 1.00D-01 BMatC= 2.51D-13 BMatP= 2.13D-11
 IDIUse=1 WtCom= 1.00D+00 WtEn= 0.00D+00
 Coeff-Com:  0.141D-05-0.196D-05-0.484D-05 0.231D-04 0.746D-03-0.212D-04
 Coeff-Com: -0.129D+00 0.113D+01
 Coeff:      0.141D-05-0.196D-05-0.484D-05 0.231D-04 0.746D-03-0.212D-04
 Coeff:     -0.129D+00 0.113D+01
 Gap=     0.353 Goal=   None    Shift=    0.000
 RMSDP=1.88D-08 MaxDP=8.76D-07 DE=-4.07D-11 OVMax= 3.73D-07

 Cycle   9  Pass 1  IDiag  1:
 RMSU=  4.37D-09    CP:  7.48D-01  2.53D+00  9.69D-01  1.02D+00  1.06D+00
                    CP:  1.18D+00  1.04D+00  1.08D+00
 CoulSu:  requested number of processors reduced to:  21 ShMem   1 Linda.
 E= -78.5805102247565     Delta-E=       -0.000000000002 Rises=F Damp=F
 DIIS: error= 9.20D-09 at cycle   9 NSaved=   9.
 NSaved= 9 IEnMin= 9 EnMin= -78.5805102247565     IErMin= 9 ErrMin= 9.20D-09
 ErrMax= 9.20D-09  0.00D+00 EMaxC= 1.00D-01 BMatC= 1.71D-15 BMatP= 2.51D-13
 IDIUse=1 WtCom= 1.00D+00 WtEn= 0.00D+00
 Coeff-Com:  0.273D-06-0.738D-06-0.901D-06 0.211D-04 0.739D-04-0.196D-03
 Coeff-Com:  0.532D-02-0.116D+00 0.111D+01
 Coeff:      0.273D-06-0.738D-06-0.901D-06 0.211D-04 0.739D-04-0.196D-03
 Coeff:      0.532D-02-0.116D+00 0.111D+01
 Gap=     0.353 Goal=   None    Shift=    0.000
 RMSDP=9.61D-10 MaxDP=3.60D-08 DE=-1.56D-12 OVMax= 4.63D-08

 SCF Done:  E(RM062X) =  -78.5805102248     A.U. after    9 cycles
            NFock=  9  Conv=0.96D-09     -V/T= 2.0051
 KE= 7.818386695471D+01 PE=-2.484605646806D+02 EE= 5.832150207141D+01
 Leave Link  502 at Sat Apr 17 06:15:51 2021, MaxMem=   104857600 cpu:           11518.0 elap:             248.6
 (Enter /s/ls4/users/knvvv/bin/g16sse/l601.exe)
 Copying SCF densities to generalized density rwf, IOpCl= 0 IROHF=0.

 **********************************************************************

            Population analysis using the SCF density.

 **********************************************************************

 Orbital symmetries:
       Occupied  (AG) (B1U) (AG) (B1U) (B2U) (AG) (B3G) (B3U)
       Virtual   (AG) (B2G) (B1U) (B2U) (AG) (B3G) (AG) (B3U) (B1G)
                 (B1U) (B2U) (B2G) (B1U) (AG) (B1U) (AU) (B2U)
                 (B3U) (B3U) (B3G) (B2U) (AG) (B3G) (B2G) (AG)
                 (B1G) (AG) (B1U) (B2G) (B1U) (B2U) (B3G) (AU)
                 (AG) (B1U) (B2U) (B1U) (B3G) (B1G) (B1U) (AG)
                 (B3U) (B3G) (AG) (AU) (B2U) (B2G) (AG) (B2U) (B3U)
                 (B3G) (B1U) (B3U) (B1G) (B2G) (B2U) (B1U) (B3G)
                 (AG) (B2G) (B1U) (AG) (B1U) (AU) (B2U) (B3G) (AG)
                 (B1U) (AG) (B2U) (B3G) (B1U) (B3G) (B3U) (B1G)
                 (AG) (B3U) (AG) (B2U) (B1G) (AU) (B3G) (B2G) (AG)
                 (AU) (B1U) (B2U) (B1U) (B3U) (B2U) (B2G) (B1G)
                 (B3G) (B1U) (AG) (B3U) (B2G) (AU) (B2U) (AG) (B2G)
                 (B1G) (B1U) (B3G) (AG) (B3G) (B3U) (B1U) (B1U)
                 (AG) (B2U) (B2G) (B3U) (B3G) (B2U) (AU) (B1U)
                 (AG) (B1U) (B3G) (B1G) (B3U) (AG) (B2U) (AU) (B2G)
                 (AG) (B2U) (AG) (B3G) (B1U) (B2G) (B1U) (B3G)
                 (B2U) (B3G) (AG) (B3U) (B2U) (B1U) (B1G) (AG)
                 (B1G) (B2U) (B3U) (AU) (B2G) (B1G) (B1U) (B3U)
                 (AU) (AG) (B3G) (B2U) (B2G) (B1U) (B3G) (B2G)
                 (AU) (B1G) (AG) (B3U) (B2U) (B3G) (B1U) (B3U)
                 (AG) (B2U) (B3G) (B2G) (AU) (AG) (AG) (B2U) (B1U)
                 (B1U) (B1G) (B3U) (B1U) (B3G) (AU) (B2G) (B3G)
                 (AG) (B1U) (AG) (B3U) (B2U) (B2G) (B1G) (AU) (B1U)
                 (B3U) (B2G) (B1G) (B2U) (B1U) (B3G) (AG) (AG)
                 (B1U) (B3G) (B2U) (AU) (AG) (B1U) (B3U) (AG) (B1U)
                 (B2G) (B1G) (B3G) (B1G) (AG) (B2U) (B1U) (B2U)
                 (B3G) (B3U) (AU) (B2G) (B2G) (B3G) (AU) (AG) (B2U)
                 (B1U) (B2U) (AG) (B3U) (B1G) (B3G) (B1U) (AU)
                 (B2G) (AG) (B3G) (B1U) (B2U) (B3G) (B2U) (B1U)
                 (B3G) (AG) (B1U) (AG) (B1U) (AG) (B1U)
 The electronic state is 1-AG.
 Alpha  occ. eigenvalues --  -10.54213 -10.54099  -0.85943  -0.66393  -0.54322
 Alpha  occ. eigenvalues --   -0.48477  -0.41972  -0.33529
 Alpha virt. eigenvalues --    0.01727   0.03107   0.03258   0.07262   0.11687
 Alpha virt. eigenvalues --    0.12021   0.12501   0.14302   0.15509   0.16948
 Alpha virt. eigenvalues --    0.17953   0.20701   0.21180   0.21612   0.22407
 Alpha virt. eigenvalues --    0.22510   0.25428   0.25684   0.26973   0.28106
 Alpha virt. eigenvalues --    0.28633   0.29382   0.31654   0.32086   0.32414
 Alpha virt. eigenvalues --    0.32921   0.36091   0.36178   0.37303   0.39527
 Alpha virt. eigenvalues --    0.39699   0.40326   0.42812   0.45803   0.48042
 Alpha virt. eigenvalues --    0.51755   0.52233   0.54886   0.56787   0.58312
 Alpha virt. eigenvalues --    0.63248   0.64039   0.66508   0.67201   0.69601
 Alpha virt. eigenvalues --    0.76100   0.79618   0.81266   0.83042   0.85304
 Alpha virt. eigenvalues --    0.86158   0.89663   0.92861   0.94727   0.97709
 Alpha virt. eigenvalues --    0.99078   0.99134   0.99343   1.00187   1.05698
 Alpha virt. eigenvalues --    1.10732   1.10876   1.21021   1.22862   1.25521
 Alpha virt. eigenvalues --    1.28368   1.32273   1.33445   1.39293   1.46641
 Alpha virt. eigenvalues --    1.49550   1.68123   1.68862   1.75390   1.79276
 Alpha virt. eigenvalues --    1.82020   1.83997   1.84855   1.90976   1.94961
 Alpha virt. eigenvalues --    1.96058   1.99997   2.03470   2.03837   2.05216
 Alpha virt. eigenvalues --    2.06150   2.06368   2.12227   2.14775   2.15424
 Alpha virt. eigenvalues --    2.15753   2.21113   2.25420   2.25799   2.34169
 Alpha virt. eigenvalues --    2.43856   2.47548   2.52892   2.55586   2.56092
 Alpha virt. eigenvalues --    2.56488   2.63807   2.63971   2.64874   2.65586
 Alpha virt. eigenvalues --    2.69652   2.70558   2.71809   2.74957   2.78624
 Alpha virt. eigenvalues --    2.79277   2.82437   2.84461   2.88640   3.05704
 Alpha virt. eigenvalues --    3.16050   3.18702   3.27877   3.37038   3.39127
 Alpha virt. eigenvalues --    3.39486   3.40836   3.41659   3.43495   3.57762
 Alpha virt. eigenvalues --    3.58598   3.72562   3.79360   3.81073   3.82175
 Alpha virt. eigenvalues --    3.83725   3.90478   3.98808   4.19501   4.32061
 Alpha virt. eigenvalues --    4.48567   4.79726   4.87406   4.90109   4.92502
 Alpha virt. eigenvalues --    4.93356   5.00419   5.12145   5.35561   5.36408
 Alpha virt. eigenvalues --    5.38281   5.38296   5.43752   5.47829   5.57669
 Alpha virt. eigenvalues --    5.62282   5.63975   5.70617   5.71356   5.72097
 Alpha virt. eigenvalues --    5.72828   5.74045   5.87427   5.88253   5.89758
 Alpha virt. eigenvalues --    5.93841   5.96811   6.01159   6.03837   6.04908
 Alpha virt. eigenvalues --    6.08909   6.09474   6.10198   6.11102   6.19721
 Alpha virt. eigenvalues --    6.26974   6.29561   6.35558   6.38514   6.40489
 Alpha virt. eigenvalues --    6.54065   6.62472   6.65836   6.67873   6.85491
 Alpha virt. eigenvalues --    6.85635   6.85944   6.92188   6.98308   6.98332
 Alpha virt. eigenvalues --    7.12080   7.13653   7.14310   7.22369   7.31085
 Alpha virt. eigenvalues --    7.37797   7.37967   7.40131   7.40760   7.44793
 Alpha virt. eigenvalues --    7.45698   7.46838   7.48807   7.54897   7.62180
 Alpha virt. eigenvalues --    7.66349   7.78554   7.83165   7.83613   7.88535
 Alpha virt. eigenvalues --    7.96917   7.98485   8.02796   8.02809   8.03807
 Alpha virt. eigenvalues --    8.04108   8.06464   8.22338   8.23262   8.24845
 Alpha virt. eigenvalues --    8.25086   8.31284   8.34883   8.34966   8.39144
 Alpha virt. eigenvalues --    8.49812   8.71730   8.76664   8.77715   8.91823
 Alpha virt. eigenvalues --    9.01771   9.07040   9.29890   9.41758   9.50715
 Alpha virt. eigenvalues --    9.55120   9.62848   9.71141   9.76934   9.96205
 Alpha virt. eigenvalues --    9.96238   9.98004  10.38426  10.49030  10.78031
 Alpha virt. eigenvalues --   11.12914  11.28096  12.43850  12.78156  12.94432
 Alpha virt. eigenvalues --   28.44546  29.26486 145.89225 146.73996
          Condensed to atoms (all electrons):
               1          2          3          4          5          6
     1  C    5.408291   0.416521  -0.034425  -0.034425   0.341377   0.341377
     2  C    0.416521   5.408291   0.341377   0.341377  -0.034425  -0.034425
     3  H   -0.034425   0.341377   0.696089  -0.197155  -0.082727   0.057484
     4  H   -0.034425   0.341377  -0.197155   0.696089   0.057484  -0.082727
     5  H    0.341377  -0.034425  -0.082727   0.057484   0.696089  -0.197155
     6  H    0.341377  -0.034425   0.057484  -0.082727  -0.197155   0.696089
 Mulliken charges:
               1
     1  C   -0.438715
     2  C   -0.438715
     3  H    0.219357
     4  H    0.219357
     5  H    0.219357
     6  H    0.219357
 Sum of Mulliken charges =  -0.00000
 Mulliken charges with hydrogens summed into heavy atoms:
               1
     1  C   -0.000000
     2  C   -0.000000
 Electronic spatial extent (au):  <R**2>=             82.9569
 Charge=             -0.0000 electrons
 Dipole moment (field-independent basis, Debye):
    X=             -0.0000    Y=              0.0000    Z=             -0.0000  Tot=              0.0000
 Quadrupole moment (field-independent basis, Debye-Ang):
   XX=            -15.7321   YY=            -12.3853   ZZ=            -12.2855
   XY=              0.0000   XZ=              0.0000   YZ=              0.0000
 Traceless Quadrupole moment (field-independent basis, Debye-Ang):
   XX=             -2.2645   YY=              1.0824   ZZ=              1.1821
   XY=              0.0000   XZ=              0.0000   YZ=              0.0000
 Octapole moment (field-independent basis, Debye-Ang**2):
  XXX=             -0.0000  YYY=             -0.0000  ZZZ=             -0.0000  XYY=             -0.0000
  XXY=              0.0000  XXZ=             -0.0000  XZZ=             -0.0000  YZZ=              0.0000
  YYZ=             -0.0000  XYZ=             -0.0000
 Hexadecapole moment (field-independent basis, Debye-Ang**3):
 XXXX=            -19.4256 YYYY=            -27.4832 ZZZZ=            -69.4537 XXXY=             -0.0000
 XXXZ=              0.0000 YYYX=             -0.0000 YYYZ=             -0.0000 ZZZX=              0.0000
 ZZZY=             -0.0000 XXYY=             -8.6234 XXZZ=            -15.7146 YYZZ=            -13.3883
 XXYZ=              0.0000 YYXZ=              0.0000 ZZXY=              0.0000
 N-N= 3.337468542971D+01 E-N=-2.484605646987D+02  KE= 7.818386695471D+01
 PrsmSu:  requested number of processors reduced to:  21 ShMem   1 Linda.
 No NMR shielding tensors so no spin-rotation constants.
 Leave Link  601 at Sat Apr 17 06:15:59 2021, MaxMem=   104857600 cpu:             378.2 elap:               8.2
 (Enter /s/ls4/users/knvvv/bin/g16sse/l801.exe)
 DoSCS=F DFT=T ScalE2(SS,OS)=  1.000000  1.000000
 Range of M.O.s used for correlation:     1   257
 NBasis=   258 NAE=     8 NBE=     8 NFC=     0 NFV=     0
 NROrb=    257 NOA=     8 NOB=     8 NVA=   249 NVB=   249

 **** Warning!!: The largest alpha MO coefficient is  0.22420789D+03

 Leave Link  801 at Sat Apr 17 06:15:59 2021, MaxMem=   104857600 cpu:               3.7 elap:               0.1
 (Enter /s/ls4/users/knvvv/bin/g16sse/l914.exe)
 RHF ground state
 Doing stability rather than CIS.
 Two-electron integrals replicated using symmetry.
 MDV=   104857600 DFT=T DoStab=T Mixed=T DoRPA=F DoScal=F NonHer=F
 Making orbital integer symmetry assigments:
 Orbital symmetries:
       Occupied  (AG) (B1U) (AG) (B1U) (B2U) (AG) (B3G) (B3U)
       Virtual   (AG) (B2G) (B1U) (B2U) (AG) (B3G) (AG) (B3U) (B1G)
                 (B1U) (B2U) (B2G) (B1U) (AG) (B1U) (AU) (B2U)
                 (B3U) (B3U) (B3G) (B2U) (AG) (B3G) (B2G) (AG)
                 (B1G) (AG) (B1U) (B2G) (B1U) (B2U) (B3G) (AU)
                 (AG) (B1U) (B2U) (B1U) (B3G) (B1G) (B1U) (AG)
                 (B3U) (B3G) (AG) (AU) (B2U) (B2G) (AG) (B2U) (B3U)
                 (B3G) (B1U) (B3U) (B1G) (B2G) (B2U) (B1U) (B3G)
                 (AG) (B2G) (B1U) (AG) (B1U) (AU) (B2U) (B3G) (AG)
                 (B1U) (AG) (B2U) (B3G) (B1U) (B3G) (B3U) (B1G)
                 (AG) (B3U) (AG) (B2U) (B1G) (AU) (B3G) (B2G) (AG)
                 (AU) (B1U) (B2U) (B1U) (B3U) (B2U) (B2G) (B1G)
                 (B3G) (B1U) (AG) (B3U) (B2G) (AU) (B2U) (AG) (B2G)
                 (B1G) (B1U) (B3G) (AG) (B3G) (B3U) (B1U) (B1U)
                 (AG) (B2U) (B2G) (B3U) (B3G) (B2U) (AU) (B1U)
                 (AG) (B1U) (B3G) (B1G) (B3U) (AG) (B2U) (AU) (B2G)
                 (AG) (B2U) (AG) (B3G) (B1U) (B2G) (B1U) (B3G)
                 (B2U) (B3G) (AG) (B3U) (B2U) (B1U) (B1G) (AG)
                 (B1G) (B2U) (B3U) (AU) (B2G) (B1G) (B1U) (B3U)
                 (AU) (AG) (B3G) (B2U) (B2G) (B1U) (B3G) (B2G)
                 (AU) (B1G) (AG) (B3U) (B2U) (B3G) (B1U) (B3U)
                 (AG) (B2U) (B3G) (B2G) (AU) (AG) (AG) (B2U) (B1U)
                 (B1U) (B1G) (B3U) (B1U) (B3G) (AU) (B2G) (B3G)
                 (AG) (B1U) (AG) (B3U) (B2U) (B2G) (B1G) (AU) (B1U)
                 (B3U) (B2G) (B1G) (B2U) (B1U) (B3G) (AG) (AG)
                 (B1U) (B3G) (B2U) (AU) (AG) (B1U) (B3U) (AG) (B1U)
                 (B2G) (B1G) (B3G) (B1G) (AG) (B2U) (B1U) (B2U)
                 (B3G) (B3U) (AU) (B2G) (B2G) (B3G) (AU) (AG) (B2U)
                 (B1U) (B2U) (AG) (B3U) (B1G) (B3G) (B1U) (AU)
                 (B2G) (AG) (B3G) (B1U) (B2U) (B3G) (B2U) (B1U)
                 (B3G) (AG) (B1U) (AG) (B1U) (AG) (B1U)
    48 initial guesses have been made.
 Convergence on wavefunction:    0.001000000000000
 Davidson Disk Diagonalization:  ConvIn= 1.00D-03 SkipCon=T Conv= 1.00D-03.
 Max sub-space:  2000 roots to seek:    48 dimension of matrix:         3984
 Iteration     1 Dimension    48 NMult     0 NNew     48
 Estimated number of processors is:   19
 CISAX will form     1 AO SS matrices at one time.
 NMat=     1 NSing=     1 JSym2X= 2.
 FoFJK:  IHMeth= 1 ICntrl=       0 DoSepK=F KAlg= 0 I1Cent=           0 FoldK=F
 IRaf= 990000000 NMat=       1 IRICut=       1 DoRegI=T DoRafI=F ISym2E= 2 IDoP0=0 IntGTp=1.
 FoFCou: FMM=F IPFlag=           0 FMFlag=      100000 FMFlg1=           0
         NFxFlg=           0 DoJE=F BraDBF=F KetDBF=F FulRan=T
         wScrn=  0.000000 ICntrl=         0 IOpCl=  0 I1Cent=           0 NGrid=           0
         NMat0=    1 NMatS0=      1 NMatT0=    0 NMatD0=    1 NMtDS0=    0 NMtDT0=    0
 Integrals replicated using symmetry in FoFCou.
 CoulSu:  requested number of processors reduced to:  18 ShMem   1 Linda.
 NMat=     1 NSing=     1 JSym2X= 2.
 CoulSu:  requested number of processors reduced to:  18 ShMem   1 Linda.
 NMat=     1 NSing=     1 JSym2X= 2.
 CoulSu:  requested number of processors reduced to:  18 ShMem   1 Linda.
 NMat=     1 NSing=     1 JSym2X= 2.
 CoulSu:  requested number of processors reduced to:  18 ShMem   1 Linda.
 NMat=     1 NSing=     1 JSym2X= 2.
 CoulSu:  requested number of processors reduced to:  18 ShMem   1 Linda.
 NMat=     1 NSing=     1 JSym2X= 2.
 CoulSu:  requested number of processors reduced to:  18 ShMem   1 Linda.
 NMat=     1 NSing=     1 JSym2X= 2.
 CoulSu:  requested number of processors reduced to:  18 ShMem   1 Linda.
 NMat=     1 NSing=     1 JSym2X= 2.
 CoulSu:  requested number of processors reduced to:  18 ShMem   1 Linda.
 NMat=     1 NSing=     1 JSym2X= 2.
 CoulSu:  requested number of processors reduced to:  18 ShMem   1 Linda.
 NMat=     1 NSing=     1 JSym2X= 2.
 CoulSu:  requested number of processors reduced to:  18 ShMem   1 Linda.
 NMat=     1 NSing=     1 JSym2X= 2.
 CoulSu:  requested number of processors reduced to:  18 ShMem   1 Linda.
 NMat=     1 NSing=     1 JSym2X= 2.
 CoulSu:  requested number of processors reduced to:  18 ShMem   1 Linda.
 NMat=     1 NSing=     1 JSym2X= 2.
 CoulSu:  requested number of processors reduced to:  18 ShMem   1 Linda.
 NMat=     1 NSing=     1 JSym2X= 2.
 CoulSu:  requested number of processors reduced to:  18 ShMem   1 Linda.
 NMat=     1 NSing=     1 JSym2X= 2.
 CoulSu:  requested number of processors reduced to:  18 ShMem   1 Linda.
 NMat=     1 NSing=     1 JSym2X= 2.
 CoulSu:  requested number of processors reduced to:  18 ShMem   1 Linda.
 NMat=     1 NSing=     1 JSym2X= 2.
 CoulSu:  requested number of processors reduced to:  18 ShMem   1 Linda.
 NMat=     1 NSing=     1 JSym2X= 2.
 CoulSu:  requested number of processors reduced to:  18 ShMem   1 Linda.
 NMat=     1 NSing=     1 JSym2X= 2.
 CoulSu:  requested number of processors reduced to:  18 ShMem   1 Linda.
 NMat=     1 NSing=     1 JSym2X= 2.
 CoulSu:  requested number of processors reduced to:  18 ShMem   1 Linda.
 NMat=     1 NSing=     1 JSym2X= 2.
 CoulSu:  requested number of processors reduced to:  18 ShMem   1 Linda.
 NMat=     1 NSing=     1 JSym2X= 2.
 CoulSu:  requested number of processors reduced to:  18 ShMem   1 Linda.
 NMat=     1 NSing=     1 JSym2X= 2.
 CoulSu:  requested number of processors reduced to:  18 ShMem   1 Linda.
 NMat=     1 NSing=     1 JSym2X= 2.
 CoulSu:  requested number of processors reduced to:  18 ShMem   1 Linda.
 NMat=     1 NSing=     0 JSym2X= 2.
 CoulSu:  requested number of processors reduced to:  18 ShMem   1 Linda.
 NMat=     1 NSing=     0 JSym2X= 2.
 CoulSu:  requested number of processors reduced to:  18 ShMem   1 Linda.
 NMat=     1 NSing=     0 JSym2X= 2.
 CoulSu:  requested number of processors reduced to:  18 ShMem   1 Linda.
 NMat=     1 NSing=     0 JSym2X= 2.
 CoulSu:  requested number of processors reduced to:  18 ShMem   1 Linda.
 NMat=     1 NSing=     0 JSym2X= 2.
 CoulSu:  requested number of processors reduced to:  18 ShMem   1 Linda.
 NMat=     1 NSing=     0 JSym2X= 2.
 CoulSu:  requested number of processors reduced to:  18 ShMem   1 Linda.
 NMat=     1 NSing=     0 JSym2X= 2.
 CoulSu:  requested number of processors reduced to:  18 ShMem   1 Linda.
 NMat=     1 NSing=     0 JSym2X= 2.
 CoulSu:  requested number of processors reduced to:  18 ShMem   1 Linda.
 NMat=     1 NSing=     0 JSym2X= 2.
 CoulSu:  requested number of processors reduced to:  18 ShMem   1 Linda.
 NMat=     1 NSing=     0 JSym2X= 2.
 CoulSu:  requested number of processors reduced to:  18 ShMem   1 Linda.
 NMat=     1 NSing=     0 JSym2X= 2.
 CoulSu:  requested number of processors reduced to:  18 ShMem   1 Linda.
 NMat=     1 NSing=     0 JSym2X= 2.
 CoulSu:  requested number of processors reduced to:  18 ShMem   1 Linda.
 NMat=     1 NSing=     0 JSym2X= 2.
 CoulSu:  requested number of processors reduced to:  18 ShMem   1 Linda.
 NMat=     1 NSing=     0 JSym2X= 2.
 CoulSu:  requested number of processors reduced to:  18 ShMem   1 Linda.
 NMat=     1 NSing=     0 JSym2X= 2.
 CoulSu:  requested number of processors reduced to:  18 ShMem   1 Linda.
 NMat=     1 NSing=     0 JSym2X= 2.
 CoulSu:  requested number of processors reduced to:  18 ShMem   1 Linda.
 NMat=     1 NSing=     0 JSym2X= 2.
 CoulSu:  requested number of processors reduced to:  18 ShMem   1 Linda.
 NMat=     1 NSing=     0 JSym2X= 2.
 CoulSu:  requested number of processors reduced to:  18 ShMem   1 Linda.
 NMat=     1 NSing=     0 JSym2X= 2.
 CoulSu:  requested number of processors reduced to:  18 ShMem   1 Linda.
 NMat=     1 NSing=     0 JSym2X= 2.
 CoulSu:  requested number of processors reduced to:  18 ShMem   1 Linda.
 NMat=     1 NSing=     0 JSym2X= 2.
 CoulSu:  requested number of processors reduced to:  18 ShMem   1 Linda.
 NMat=     1 NSing=     0 JSym2X= 2.
 CoulSu:  requested number of processors reduced to:  18 ShMem   1 Linda.
 NMat=     1 NSing=     0 JSym2X= 2.
 CoulSu:  requested number of processors reduced to:  18 ShMem   1 Linda.
 NMat=     1 NSing=     0 JSym2X= 2.
 CoulSu:  requested number of processors reduced to:  18 ShMem   1 Linda.
 New state      1 was old state      4
 Excitation Energies [eV] at current iteration:
 Root      1 :     3.836471115788810
 Root      2 :     7.325554227549919
 Root      3 :     7.344653825506774
 Root      4 :     7.820526710928626
 Root      5 :     7.927751492486228
 Root      6 :     7.968695231072091
 Root      7 :     8.472030862481404
 Root      8 :     8.630439875895354
 Root      9 :     8.715494714034897
 Root     10 :     9.431438822828618
 Root     11 :     9.517910751793181
 Root     12 :     9.624571266557247
 Root     13 :     9.631472471189964
 Root     14 :     9.640711886214975
 Root     15 :    10.078236865184920
 Root     16 :    10.085448034023030
 Root     17 :    10.086354405909300
 Root     18 :    10.156355929889330
 Root     19 :    10.268903513554530
 Root     20 :    10.348350369609790
 Root     21 :    10.441673224100270
 Root     22 :    10.456433983012270
 Root     23 :    10.677712611932170
 Root     24 :    10.895327251112670
 Root     25 :    10.896565926431230
 Root     26 :    10.935808933692680
 Root     27 :    11.070876683980450
 Root     28 :    11.112615542798040
 Root     29 :    11.203376349823220
 Root     30 :    11.296811832157970
 Root     31 :    11.385854136192690
 Root     32 :    11.419123409783240
 Root     33 :    11.550220093433280
 Root     34 :    11.651527042928910
 Root     35 :    11.712272760741100
 Root     36 :    11.825693443932360
 Root     37 :    12.033907655028400
 Root     38 :    12.045508046917660
 Root     39 :    12.267725726782860
 Root     40 :    12.277165503516940
 Root     41 :    12.304055330170500
 Root     42 :    12.321401143282950
 Root     43 :    12.422440705824960
 Root     44 :    12.448848192506640
 Root     45 :    12.488540893044670
 Root     46 :    12.538615358595870
 Root     47 :    13.903736793027170
 Root     48 :    17.416541463169150
 Iteration     2 Dimension    96 NMult    48 NNew     48
 Estimated number of processors is:   19
 CISAX will form     1 AO SS matrices at one time.
 NMat=     1 NSing=     1 JSym2X= 2.
 CoulSu:  requested number of processors reduced to:  18 ShMem   1 Linda.
 NMat=     1 NSing=     1 JSym2X= 2.
 CoulSu:  requested number of processors reduced to:  18 ShMem   1 Linda.
 NMat=     1 NSing=     1 JSym2X= 2.
 CoulSu:  requested number of processors reduced to:  18 ShMem   1 Linda.
 NMat=     1 NSing=     1 JSym2X= 2.
 CoulSu:  requested number of processors reduced to:  18 ShMem   1 Linda.
 NMat=     1 NSing=     1 JSym2X= 2.
 CoulSu:  requested number of processors reduced to:  18 ShMem   1 Linda.
 NMat=     1 NSing=     1 JSym2X= 2.
 CoulSu:  requested number of processors reduced to:  18 ShMem   1 Linda.
 NMat=     1 NSing=     1 JSym2X= 2.
 CoulSu:  requested number of processors reduced to:  18 ShMem   1 Linda.
 NMat=     1 NSing=     1 JSym2X= 2.
 CoulSu:  requested number of processors reduced to:  18 ShMem   1 Linda.
 NMat=     1 NSing=     1 JSym2X= 2.
 CoulSu:  requested number of processors reduced to:  18 ShMem   1 Linda.
 NMat=     1 NSing=     1 JSym2X= 2.
 CoulSu:  requested number of processors reduced to:  18 ShMem   1 Linda.
 NMat=     1 NSing=     1 JSym2X= 2.
 CoulSu:  requested number of processors reduced to:  18 ShMem   1 Linda.
 NMat=     1 NSing=     1 JSym2X= 2.
 CoulSu:  requested number of processors reduced to:  18 ShMem   1 Linda.
 NMat=     1 NSing=     1 JSym2X= 2.
 CoulSu:  requested number of processors reduced to:  18 ShMem   1 Linda.
 NMat=     1 NSing=     1 JSym2X= 2.
 CoulSu:  requested number of processors reduced to:  18 ShMem   1 Linda.
 NMat=     1 NSing=     1 JSym2X= 2.
 CoulSu:  requested number of processors reduced to:  18 ShMem   1 Linda.
 NMat=     1 NSing=     1 JSym2X= 2.
 CoulSu:  requested number of processors reduced to:  18 ShMem   1 Linda.
 NMat=     1 NSing=     1 JSym2X= 2.
 CoulSu:  requested number of processors reduced to:  18 ShMem   1 Linda.
 NMat=     1 NSing=     1 JSym2X= 2.
 CoulSu:  requested number of processors reduced to:  18 ShMem   1 Linda.
 NMat=     1 NSing=     1 JSym2X= 2.
 CoulSu:  requested number of processors reduced to:  18 ShMem   1 Linda.
 NMat=     1 NSing=     1 JSym2X= 2.
 CoulSu:  requested number of processors reduced to:  18 ShMem   1 Linda.
 NMat=     1 NSing=     1 JSym2X= 2.
 CoulSu:  requested number of processors reduced to:  18 ShMem   1 Linda.
 NMat=     1 NSing=     1 JSym2X= 2.
 CoulSu:  requested number of processors reduced to:  18 ShMem   1 Linda.
 NMat=     1 NSing=     1 JSym2X= 2.
 CoulSu:  requested number of processors reduced to:  18 ShMem   1 Linda.
 NMat=     1 NSing=     1 JSym2X= 2.
 CoulSu:  requested number of processors reduced to:  18 ShMem   1 Linda.
 NMat=     1 NSing=     0 JSym2X= 2.
 CoulSu:  requested number of processors reduced to:  18 ShMem   1 Linda.
 NMat=     1 NSing=     0 JSym2X= 2.
 CoulSu:  requested number of processors reduced to:  18 ShMem   1 Linda.
 NMat=     1 NSing=     0 JSym2X= 2.
 CoulSu:  requested number of processors reduced to:  18 ShMem   1 Linda.
 NMat=     1 NSing=     0 JSym2X= 2.
 CoulSu:  requested number of processors reduced to:  18 ShMem   1 Linda.
 NMat=     1 NSing=     0 JSym2X= 2.
 CoulSu:  requested number of processors reduced to:  18 ShMem   1 Linda.
 NMat=     1 NSing=     0 JSym2X= 2.
 CoulSu:  requested number of processors reduced to:  18 ShMem   1 Linda.
 NMat=     1 NSing=     0 JSym2X= 2.
 CoulSu:  requested number of processors reduced to:  18 ShMem   1 Linda.
 NMat=     1 NSing=     0 JSym2X= 2.
 CoulSu:  requested number of processors reduced to:  18 ShMem   1 Linda.
 NMat=     1 NSing=     0 JSym2X= 2.
 CoulSu:  requested number of processors reduced to:  18 ShMem   1 Linda.
 NMat=     1 NSing=     0 JSym2X= 2.
 CoulSu:  requested number of processors reduced to:  18 ShMem   1 Linda.
 NMat=     1 NSing=     0 JSym2X= 2.
 CoulSu:  requested number of processors reduced to:  18 ShMem   1 Linda.
 NMat=     1 NSing=     0 JSym2X= 2.
 CoulSu:  requested number of processors reduced to:  18 ShMem   1 Linda.
 NMat=     1 NSing=     0 JSym2X= 2.
 CoulSu:  requested number of processors reduced to:  18 ShMem   1 Linda.
 NMat=     1 NSing=     0 JSym2X= 2.
 CoulSu:  requested number of processors reduced to:  18 ShMem   1 Linda.
 NMat=     1 NSing=     0 JSym2X= 2.
 CoulSu:  requested number of processors reduced to:  18 ShMem   1 Linda.
 NMat=     1 NSing=     0 JSym2X= 2.
 CoulSu:  requested number of processors reduced to:  18 ShMem   1 Linda.
 NMat=     1 NSing=     0 JSym2X= 2.
 CoulSu:  requested number of processors reduced to:  18 ShMem   1 Linda.
 NMat=     1 NSing=     0 JSym2X= 2.
 CoulSu:  requested number of processors reduced to:  18 ShMem   1 Linda.
 NMat=     1 NSing=     0 JSym2X= 2.
 CoulSu:  requested number of processors reduced to:  18 ShMem   1 Linda.
 NMat=     1 NSing=     0 JSym2X= 2.
 CoulSu:  requested number of processors reduced to:  18 ShMem   1 Linda.
 NMat=     1 NSing=     0 JSym2X= 2.
 CoulSu:  requested number of processors reduced to:  18 ShMem   1 Linda.
 NMat=     1 NSing=     0 JSym2X= 2.
 CoulSu:  requested number of processors reduced to:  18 ShMem   1 Linda.
 NMat=     1 NSing=     0 JSym2X= 2.
 CoulSu:  requested number of processors reduced to:  18 ShMem   1 Linda.
 NMat=     1 NSing=     0 JSym2X= 2.
 CoulSu:  requested number of processors reduced to:  18 ShMem   1 Linda.
 Root      1 not converged, maximum delta is    0.059527133448182
 Excitation Energies [eV] at current iteration:
 Root      1 :     3.481109739866109   Change is   -0.355361375922702
 Root      2 :     7.229968698781497   Change is   -0.114685126725277
 Root      3 :     7.302289242933917   Change is   -0.023264984616002
 Root      4 :     7.674996893234828   Change is   -0.293698337837263
 Root      5 :     7.756477151100303   Change is   -0.064049559828324
 Root      6 :     7.883365638772644   Change is   -0.044385853713584
 Root      7 :     8.256719877231228   Change is   -0.215310985250175
 Root      8 :     8.444860456296359   Change is   -0.185579419598995
 Root      9 :     8.548748526210455   Change is   -0.166746187824441
 Root     10 :     8.878989729927149   Change is   -1.562683494173122
 Root     11 :     9.013719097185252   Change is   -0.417719725643366
 Root     12 :     9.228476288115617   Change is   -0.289434463677562
 Root     13 :     9.399455567970861   Change is   -0.232016903219102
 Root     14 :     9.504298010697566   Change is   -0.120273255859681
 Root     15 :     9.508283139751150   Change is   -0.132428746463826
 Root     16 :     9.801990807780667   Change is   -0.354365122108667
 Root     17 :     9.822520480336474   Change is   -0.263833925572824
 Root     18 :     9.892538744648588   Change is   -0.455811624961204
 Root     19 :     9.987379244535074   Change is   -0.098068789487955
 Root     20 :    10.003529597077080   Change is   -0.074707268107845
 Root     21 :    10.116531839092220   Change is   -0.339902143920049
 Root     22 :    10.148426626361380   Change is   -0.120476887193142
 Root     23 :    10.325609775459620   Change is   -0.352102836472549
 Root     24 :    10.381582899265170   Change is   -0.514983027166059
 Root     25 :    10.399300602398830   Change is   -0.536508331293850
 Root     26 :    10.568037707088910   Change is   -0.327289544023764
 Root     27 :    10.673305235628860   Change is   -0.397571448351592
 Root     28 :    10.942547869705200   Change is   -0.170067673092844
 Root     29 :    10.962819105288820   Change is   -0.333992726869151
 Root     30 :    10.981599368870060   Change is   -0.221776980953162
 Root     31 :    11.215116691325510   Change is   -0.170737444867173
 Root     32 :    11.223194660187420   Change is   -0.489078100553679
 Root     33 :    11.232414543735590   Change is   -0.317805549697690
 Root     34 :    11.246074348053250   Change is   -0.173049061729988
 Root     35 :    11.409884160733930   Change is   -0.241642882194982
 Root     36 :    11.623504608552010   Change is   -0.202188835380354
 Root     37 :    11.837623369786550   Change is   -0.196284285241851
 Root     38 :    11.924414950023740   Change is   -0.121093096893916
 Root     39 :    11.977259093700700   Change is   -0.290466633082168
 Root     40 :    12.034941251341010   Change is   -0.286459891941942
 Root     41 :    12.059938501663350   Change is   -0.217227001853587
 Root     42 :    12.130654777204680   Change is   -0.357886115839989
 Root     43 :    12.148852973154650   Change is   -0.155202357015853
 Root     44 :    12.154459700417600   Change is   -0.294388492089049
 Root     45 :    12.334225296676980   Change is   -0.088215409147984
 Root     46 :    12.376468312427160   Change is   -0.162147046168711
 Root     47 :    12.870738493234400   Change is   -1.032998299792769
 Root     48 :    13.091409879361050   Change is   -4.325131583808099
 Iteration     3 Dimension   102 NMult    96 NNew      6
 Estimated number of processors is:   19
 CISAX will form     1 AO SS matrices at one time.
 NMat=     1 NSing=     1 JSym2X= 2.
 CoulSu:  requested number of processors reduced to:  18 ShMem   1 Linda.
 NMat=     1 NSing=     1 JSym2X= 2.
 CoulSu:  requested number of processors reduced to:  18 ShMem   1 Linda.
 NMat=     1 NSing=     1 JSym2X= 2.
 CoulSu:  requested number of processors reduced to:  18 ShMem   1 Linda.
 NMat=     1 NSing=     0 JSym2X= 2.
 CoulSu:  requested number of processors reduced to:  18 ShMem   1 Linda.
 NMat=     1 NSing=     0 JSym2X= 2.
 CoulSu:  requested number of processors reduced to:  18 ShMem   1 Linda.
 NMat=     1 NSing=     0 JSym2X= 2.
 CoulSu:  requested number of processors reduced to:  18 ShMem   1 Linda.
 Root      1 not converged, maximum delta is    0.006229929298528
 Excitation Energies [eV] at current iteration:
 Root      1 :     3.464244407347056   Change is   -0.016865332519053
 Root      2 :     7.226538845939210   Change is   -0.003429852842288
 Root      3 :     7.302061646177164   Change is   -0.000227596756752
 Root      4 :     7.669039891663475   Change is   -0.005957001571352
 Root      5 :     7.881145596795946   Change is   -0.002220041976698
 Root      6 :     8.253092184859865   Change is   -0.003627692371364
 Iteration     4 Dimension   108 NMult   102 NNew      6
 Estimated number of processors is:   19
 CISAX will form     1 AO SS matrices at one time.
 NMat=     1 NSing=     1 JSym2X= 2.
 CoulSu:  requested number of processors reduced to:  18 ShMem   1 Linda.
 NMat=     1 NSing=     1 JSym2X= 2.
 CoulSu:  requested number of processors reduced to:  18 ShMem   1 Linda.
 NMat=     1 NSing=     1 JSym2X= 2.
 CoulSu:  requested number of processors reduced to:  18 ShMem   1 Linda.
 NMat=     1 NSing=     0 JSym2X= 2.
 CoulSu:  requested number of processors reduced to:  18 ShMem   1 Linda.
 NMat=     1 NSing=     0 JSym2X= 2.
 CoulSu:  requested number of processors reduced to:  18 ShMem   1 Linda.
 NMat=     1 NSing=     0 JSym2X= 2.
 CoulSu:  requested number of processors reduced to:  18 ShMem   1 Linda.
 Root      1 not converged, maximum delta is    0.001410340723082
 Excitation Energies [eV] at current iteration:
 Root      1 :     3.463782042745496   Change is   -0.000462364601560
 Root      2 :     7.226379766233270   Change is   -0.000159079705939
 Root      3 :     7.302058605108187   Change is   -0.000003041068977
 Root      4 :     7.668897878003749   Change is   -0.000142013659726
 Root      5 :     7.881119523002858   Change is   -0.000026073793088
 Root      6 :     8.252962507434813   Change is   -0.000129677425052
 Iteration     5 Dimension   114 NMult   108 NNew      6
 Estimated number of processors is:   19
 CISAX will form     1 AO SS matrices at one time.
 NMat=     1 NSing=     1 JSym2X= 2.
 CoulSu:  requested number of processors reduced to:  18 ShMem   1 Linda.
 NMat=     1 NSing=     1 JSym2X= 2.
 CoulSu:  requested number of processors reduced to:  18 ShMem   1 Linda.
 NMat=     1 NSing=     1 JSym2X= 2.
 CoulSu:  requested number of processors reduced to:  18 ShMem   1 Linda.
 NMat=     1 NSing=     0 JSym2X= 2.
 CoulSu:  requested number of processors reduced to:  18 ShMem   1 Linda.
 NMat=     1 NSing=     0 JSym2X= 2.
 CoulSu:  requested number of processors reduced to:  18 ShMem   1 Linda.
 NMat=     1 NSing=     0 JSym2X= 2.
 CoulSu:  requested number of processors reduced to:  18 ShMem   1 Linda.
 Root      1 has converged.
 Excitation Energies [eV] at current iteration:
 Root      1 :     3.463775806048203   Change is   -0.000006236697293
 Root      2 :     7.226375461531823   Change is   -0.000004304701448
 Root      3 :     7.302058566414388   Change is   -0.000000038693800
 Root      4 :     7.668895382409096   Change is   -0.000002495594653
 Root      5 :     7.881119041344729   Change is   -0.000000481658129
 Root      6 :     8.252960274132290   Change is   -0.000002233302523
 Convergence achieved on expansion vectors.
 ***********************************************************************
 Stability analysis using <AA,BB:AA,BB> singles matrix:
 ***********************************************************************
 1PDM for each excited state written to RWF  633
 Ground to excited state transition densities written to RWF  633

 Eigenvectors of the stability matrix:
 
 Eigenvector   1:      Triplet-B1U  Eigenvalue= 0.1272914  <S**2>=2.000
       8 -> 10         0.67478
       8 -> 20        -0.18163
 The wavefunction is stable under the perturbations considered.
 Leave Link  914 at Sat Apr 17 06:24:42 2021, MaxMem=   104857600 cpu:           20972.9 elap:             523.1
 (Enter /s/ls4/users/knvvv/bin/g16sse/l508.exe)
 The wavefunction is already stable.
 Leave Link  508 at Sat Apr 17 06:24:42 2021, MaxMem=   104857600 cpu:               2.2 elap:               0.1
 (Enter /s/ls4/users/knvvv/bin/g16sse/l601.exe)
 Copying SCF densities to generalized density rwf, IOpCl= 0 IROHF=0.

 **********************************************************************

            Population analysis using the SCF density.

 **********************************************************************

 Orbital symmetries:
       Occupied  (AG) (B1U) (AG) (B1U) (B2U) (AG) (B3G) (B3U)
       Virtual   (AG) (B2G) (B1U) (B2U) (AG) (B3G) (AG) (B3U) (B1G)
                 (B1U) (B2U) (B2G) (B1U) (AG) (B1U) (AU) (B2U)
                 (B3U) (B3U) (B3G) (B2U) (AG) (B3G) (B2G) (AG)
                 (B1G) (AG) (B1U) (B2G) (B1U) (B2U) (B3G) (AU)
                 (AG) (B1U) (B2U) (B1U) (B3G) (B1G) (B1U) (AG)
                 (B3U) (B3G) (AG) (AU) (B2U) (B2G) (AG) (B2U) (B3U)
                 (B3G) (B1U) (B3U) (B1G) (B2G) (B2U) (B1U) (B3G)
                 (AG) (B2G) (B1U) (AG) (B1U) (AU) (B2U) (B3G) (AG)
                 (B1U) (AG) (B2U) (B3G) (B1U) (B3G) (B3U) (B1G)
                 (AG) (B3U) (AG) (B2U) (B1G) (AU) (B3G) (B2G) (AG)
                 (AU) (B1U) (B2U) (B1U) (B3U) (B2U) (B2G) (B1G)
                 (B3G) (B1U) (AG) (B3U) (B2G) (AU) (B2U) (AG) (B2G)
                 (B1G) (B1U) (B3G) (AG) (B3G) (B3U) (B1U) (B1U)
                 (AG) (B2U) (B2G) (B3U) (B3G) (B2U) (AU) (B1U)
                 (AG) (B1U) (B3G) (B1G) (B3U) (AG) (B2U) (AU) (B2G)
                 (AG) (B2U) (AG) (B3G) (B1U) (B2G) (B1U) (B3G)
                 (B2U) (B3G) (AG) (B3U) (B2U) (B1U) (B1G) (AG)
                 (B1G) (B2U) (B3U) (AU) (B2G) (B1G) (B1U) (B3U)
                 (AU) (AG) (B3G) (B2U) (B2G) (B1U) (B3G) (B2G)
                 (AU) (B1G) (AG) (B3U) (B2U) (B3G) (B1U) (B3U)
                 (AG) (B2U) (B3G) (B2G) (AU) (AG) (AG) (B2U) (B1U)
                 (B1U) (B1G) (B3U) (B1U) (B3G) (AU) (B2G) (B3G)
                 (AG) (B1U) (AG) (B3U) (B2U) (B2G) (B1G) (AU) (B1U)
                 (B3U) (B2G) (B1G) (B2U) (B1U) (B3G) (AG) (AG)
                 (B1U) (B3G) (B2U) (AU) (AG) (B1U) (B3U) (AG) (B1U)
                 (B2G) (B1G) (B3G) (B1G) (AG) (B2U) (B1U) (B2U)
                 (B3G) (B3U) (AU) (B2G) (B2G) (B3G) (AU) (AG) (B2U)
                 (B1U) (B2U) (AG) (B3U) (B1G) (B3G) (B1U) (AU)
                 (B2G) (AG) (B3G) (B1U) (B2U) (B3G) (B2U) (B1U)
                 (B3G) (AG) (B1U) (AG) (B1U) (AG) (B1U)
 The electronic state is 1-AG.
 Alpha  occ. eigenvalues --  -10.54213 -10.54099  -0.85943  -0.66393  -0.54322
 Alpha  occ. eigenvalues --   -0.48477  -0.41972  -0.33529
 Alpha virt. eigenvalues --    0.01727   0.03107   0.03258   0.07262   0.11687
 Alpha virt. eigenvalues --    0.12021   0.12501   0.14302   0.15509   0.16948
 Alpha virt. eigenvalues --    0.17953   0.20701   0.21180   0.21612   0.22407
 Alpha virt. eigenvalues --    0.22510   0.25428   0.25684   0.26973   0.28106
 Alpha virt. eigenvalues --    0.28633   0.29382   0.31654   0.32086   0.32414
 Alpha virt. eigenvalues --    0.32921   0.36091   0.36178   0.37303   0.39527
 Alpha virt. eigenvalues --    0.39699   0.40326   0.42812   0.45803   0.48042
 Alpha virt. eigenvalues --    0.51755   0.52233   0.54886   0.56787   0.58312
 Alpha virt. eigenvalues --    0.63248   0.64039   0.66508   0.67201   0.69601
 Alpha virt. eigenvalues --    0.76100   0.79618   0.81266   0.83042   0.85304
 Alpha virt. eigenvalues --    0.86158   0.89663   0.92861   0.94727   0.97709
 Alpha virt. eigenvalues --    0.99078   0.99134   0.99343   1.00187   1.05698
 Alpha virt. eigenvalues --    1.10732   1.10876   1.21021   1.22862   1.25521
 Alpha virt. eigenvalues --    1.28368   1.32273   1.33445   1.39293   1.46641
 Alpha virt. eigenvalues --    1.49550   1.68123   1.68862   1.75390   1.79276
 Alpha virt. eigenvalues --    1.82020   1.83997   1.84855   1.90976   1.94961
 Alpha virt. eigenvalues --    1.96058   1.99997   2.03470   2.03837   2.05216
 Alpha virt. eigenvalues --    2.06150   2.06368   2.12227   2.14775   2.15424
 Alpha virt. eigenvalues --    2.15753   2.21113   2.25420   2.25799   2.34169
 Alpha virt. eigenvalues --    2.43856   2.47548   2.52892   2.55586   2.56092
 Alpha virt. eigenvalues --    2.56488   2.63807   2.63971   2.64874   2.65586
 Alpha virt. eigenvalues --    2.69652   2.70558   2.71809   2.74957   2.78624
 Alpha virt. eigenvalues --    2.79277   2.82437   2.84461   2.88640   3.05704
 Alpha virt. eigenvalues --    3.16050   3.18702   3.27877   3.37038   3.39127
 Alpha virt. eigenvalues --    3.39486   3.40836   3.41659   3.43495   3.57762
 Alpha virt. eigenvalues --    3.58598   3.72562   3.79360   3.81073   3.82175
 Alpha virt. eigenvalues --    3.83725   3.90478   3.98808   4.19501   4.32061
 Alpha virt. eigenvalues --    4.48567   4.79726   4.87406   4.90109   4.92502
 Alpha virt. eigenvalues --    4.93356   5.00419   5.12145   5.35561   5.36408
 Alpha virt. eigenvalues --    5.38281   5.38296   5.43752   5.47829   5.57669
 Alpha virt. eigenvalues --    5.62282   5.63975   5.70617   5.71356   5.72097
 Alpha virt. eigenvalues --    5.72828   5.74045   5.87427   5.88253   5.89758
 Alpha virt. eigenvalues --    5.93841   5.96811   6.01159   6.03837   6.04908
 Alpha virt. eigenvalues --    6.08909   6.09474   6.10198   6.11102   6.19721
 Alpha virt. eigenvalues --    6.26974   6.29561   6.35558   6.38514   6.40489
 Alpha virt. eigenvalues --    6.54065   6.62472   6.65836   6.67873   6.85491
 Alpha virt. eigenvalues --    6.85635   6.85944   6.92188   6.98308   6.98332
 Alpha virt. eigenvalues --    7.12080   7.13653   7.14310   7.22369   7.31085
 Alpha virt. eigenvalues --    7.37797   7.37967   7.40131   7.40760   7.44793
 Alpha virt. eigenvalues --    7.45698   7.46838   7.48807   7.54897   7.62180
 Alpha virt. eigenvalues --    7.66349   7.78554   7.83165   7.83613   7.88535
 Alpha virt. eigenvalues --    7.96917   7.98485   8.02796   8.02809   8.03807
 Alpha virt. eigenvalues --    8.04108   8.06464   8.22338   8.23262   8.24845
 Alpha virt. eigenvalues --    8.25086   8.31284   8.34883   8.34966   8.39144
 Alpha virt. eigenvalues --    8.49812   8.71730   8.76664   8.77715   8.91823
 Alpha virt. eigenvalues --    9.01771   9.07040   9.29890   9.41758   9.50715
 Alpha virt. eigenvalues --    9.55120   9.62848   9.71141   9.76934   9.96205
 Alpha virt. eigenvalues --    9.96238   9.98004  10.38426  10.49030  10.78031
 Alpha virt. eigenvalues --   11.12914  11.28096  12.43850  12.78156  12.94432
 Alpha virt. eigenvalues --   28.44546  29.26486 145.89225 146.73996
          Condensed to atoms (all electrons):
               1          2          3          4          5          6
     1  C    5.408291   0.416521  -0.034425  -0.034425   0.341377   0.341377
     2  C    0.416521   5.408291   0.341377   0.341377  -0.034425  -0.034425
     3  H   -0.034425   0.341377   0.696089  -0.197155  -0.082727   0.057484
     4  H   -0.034425   0.341377  -0.197155   0.696089   0.057484  -0.082727
     5  H    0.341377  -0.034425  -0.082727   0.057484   0.696089  -0.197155
     6  H    0.341377  -0.034425   0.057484  -0.082727  -0.197155   0.696089
 Mulliken charges:
               1
     1  C   -0.438715
     2  C   -0.438715
     3  H    0.219357
     4  H    0.219357
     5  H    0.219357
     6  H    0.219357
 Sum of Mulliken charges =  -0.00000
 Mulliken charges with hydrogens summed into heavy atoms:
               1
     1  C   -0.000000
     2  C   -0.000000
 Electronic spatial extent (au):  <R**2>=             82.9569
 Charge=             -0.0000 electrons
 Dipole moment (field-independent basis, Debye):
    X=             -0.0000    Y=              0.0000    Z=             -0.0000  Tot=              0.0000
 Quadrupole moment (field-independent basis, Debye-Ang):
   XX=            -15.7321   YY=            -12.3853   ZZ=            -12.2855
   XY=              0.0000   XZ=              0.0000   YZ=              0.0000
 Traceless Quadrupole moment (field-independent basis, Debye-Ang):
   XX=             -2.2645   YY=              1.0824   ZZ=              1.1821
   XY=              0.0000   XZ=              0.0000   YZ=              0.0000
 Octapole moment (field-independent basis, Debye-Ang**2):
  XXX=             -0.0000  YYY=             -0.0000  ZZZ=             -0.0000  XYY=             -0.0000
  XXY=              0.0000  XXZ=             -0.0000  XZZ=             -0.0000  YZZ=              0.0000
  YYZ=             -0.0000  XYZ=             -0.0000
 Hexadecapole moment (field-independent basis, Debye-Ang**3):
 XXXX=            -19.4256 YYYY=            -27.4832 ZZZZ=            -69.4537 XXXY=             -0.0000
 XXXZ=              0.0000 YYYX=             -0.0000 YYYZ=             -0.0000 ZZZX=              0.0000
 ZZZY=             -0.0000 XXYY=             -8.6234 XXZZ=            -15.7146 YYZZ=            -13.3883
 XXYZ=              0.0000 YYXZ=              0.0000 ZZXY=              0.0000
 N-N= 3.337468542971D+01 E-N=-2.484605646987D+02  KE= 7.818386695471D+01
 PrsmSu:  requested number of processors reduced to:  21 ShMem   1 Linda.
 No NMR shielding tensors so no spin-rotation constants.
 Leave Link  601 at Sat Apr 17 06:24:51 2021, MaxMem=   104857600 cpu:             373.7 elap:               8.1
 (Enter /s/ls4/users/knvvv/bin/g16sse/l9999.exe)

 Test job not archived.
 1\1\GINC-N156\Stability\RM062X\Gen\C2H4\KNVVV\17-Apr-2021\0\\#P M062X/
 GEN Integral=UltraFineGrid SCF=NoSymm Stable=(RExt, Opt) IOp(1/33=1)\\
 Database calculations.\\0,1\C,0,0.,0.,0.\C,0,0.,0.,1.3342\H,0,0.923404
 1342,0.,1.8987335198\H,0,-0.9234041342,0.,1.8987335198\H,0,0.923404134
 2,0.,-0.5645335198\H,0,-0.9234041342,0.,-0.5645335198\\Version=ES64L-G
 16RevA.03\State=1-AG\HF=-78.5805102\RMSD=9.613e-10\Dipole=0.,0.,0.\Qua
 drupole=0.804718,-1.6835806,0.8788625,0.,0.,0.\PG=D02H [C2"(C1.C1),SG(
 H4)]\\@


 IT IS A CAPITAL MISTAKE TO THEORIZE BEFORE ONE HAS
 DATA.  INSENSIBLY ONE BEGINS TO TWIST FACTS TO SUIT
 THEORIES RATHER THAN THEORIES TO SUIT FACTS.

                                         -- SHERLOCK HOLMES
 Job cpu time:       0 days  9 hours 36 minutes 16.6 seconds.
 Elapsed time:       0 days  0 hours 13 minutes 36.8 seconds.
 File lengths (MBytes):  RWF=    155 Int=      0 D2E=      0 Chk=     10 Scr=      1
 Normal termination of Gaussian 16 at Sat Apr 17 06:24:51 2021.
