 Entering Gaussian System, Link 0=/s/ls4/users/knvvv/bin/g16sse/g16
 Input=data/database/M062X--def2-QZVP--MB16-43_MgH2.gjf
 Output=data/database/M062X--def2-QZVP--MB16-43_MgH2.log
 Initial command:
 /s/ls4/users/knvvv/bin/g16sse/l1.exe "/s/ls4/users/knvvv/bin/scratch/Gau-1841.inp" -scrdir="/s/ls4/users/knvvv/bin/scratch/"
 Entering Link 1 = /s/ls4/users/knvvv/bin/g16sse/l1.exe PID=      1842.
  
 Copyright (c) 1988,1990,1992,1993,1995,1998,2003,2009,2016,
            Gaussian, Inc.  All Rights Reserved.
  
 This is part of the Gaussian(R) 16 program.  It is based on
 the Gaussian(R) 09 system (copyright 2009, Gaussian, Inc.),
 the Gaussian(R) 03 system (copyright 2003, Gaussian, Inc.),
 the Gaussian(R) 98 system (copyright 1998, Gaussian, Inc.),
 the Gaussian(R) 94 system (copyright 1995, Gaussian, Inc.),
 the Gaussian 92(TM) system (copyright 1992, Gaussian, Inc.),
 the Gaussian 90(TM) system (copyright 1990, Gaussian, Inc.),
 the Gaussian 88(TM) system (copyright 1988, Gaussian, Inc.),
 the Gaussian 86(TM) system (copyright 1986, Carnegie Mellon
 University), and the Gaussian 82(TM) system (copyright 1983,
 Carnegie Mellon University). Gaussian is a federally registered
 trademark of Gaussian, Inc.
  
 This software contains proprietary and confidential information,
 including trade secrets, belonging to Gaussian, Inc.
  
 This software is provided under written license and may be
 used, copied, transmitted, or stored only in accord with that
 written license.
  
 The following legend is applicable only to US Government
 contracts under FAR:
  
                    RESTRICTED RIGHTS LEGEND
  
 Use, reproduction and disclosure by the US Government is
 subject to restrictions as set forth in subparagraphs (a)
 and (c) of the Commercial Computer Software - Restricted
 Rights clause in FAR 52.227-19.
  
 Gaussian, Inc.
 340 Quinnipiac St., Bldg. 40, Wallingford CT 06492
  
  
 ---------------------------------------------------------------
 Warning -- This program may not be used in any manner that
 competes with the business of Gaussian, Inc. or will provide
 assistance to any competitor of Gaussian, Inc.  The licensee
 of this program is prohibited from giving any competitor of
 Gaussian, Inc. access to this program.  By using this program,
 the user acknowledges that Gaussian, Inc. is engaged in the
 business of creating and licensing software in the field of
 computational chemistry and represents and warrants to the
 licensee that it is not a competitor of Gaussian, Inc. and that
 it will not use this program in any manner prohibited above.
 ---------------------------------------------------------------
  

 Cite this work as:
 Gaussian 16, Revision A.03,
 M. J. Frisch, G. W. Trucks, H. B. Schlegel, G. E. Scuseria, 
 M. A. Robb, J. R. Cheeseman, G. Scalmani, V. Barone, 
 G. A. Petersson, H. Nakatsuji, X. Li, M. Caricato, A. V. Marenich, 
 J. Bloino, B. G. Janesko, R. Gomperts, B. Mennucci, H. P. Hratchian, 
 J. V. Ortiz, A. F. Izmaylov, J. L. Sonnenberg, D. Williams-Young, 
 F. Ding, F. Lipparini, F. Egidi, J. Goings, B. Peng, A. Petrone, 
 T. Henderson, D. Ranasinghe, V. G. Zakrzewski, J. Gao, N. Rega, 
 G. Zheng, W. Liang, M. Hada, M. Ehara, K. Toyota, R. Fukuda, 
 J. Hasegawa, M. Ishida, T. Nakajima, Y. Honda, O. Kitao, H. Nakai, 
 T. Vreven, K. Throssell, J. A. Montgomery, Jr., J. E. Peralta, 
 F. Ogliaro, M. J. Bearpark, J. J. Heyd, E. N. Brothers, K. N. Kudin, 
 V. N. Staroverov, T. A. Keith, R. Kobayashi, J. Normand, 
 K. Raghavachari, A. P. Rendell, J. C. Burant, S. S. Iyengar, 
 J. Tomasi, M. Cossi, J. M. Millam, M. Klene, C. Adamo, R. Cammi, 
 J. W. Ochterski, R. L. Martin, K. Morokuma, O. Farkas, 
 J. B. Foresman, and D. J. Fox, Gaussian, Inc., Wallingford CT, 2016.
 
 ******************************************
 Gaussian 16:  ES64L-G16RevA.03 25-Dec-2016
                17-Apr-2021 
 ******************************************
 %RWF=temp7_12079,70GB
 %nprocshared=48
 Will use up to   48 processors via shared memory.
 Default route: MaxDisk=80GB
 ----------------------------------------------------------------------
 #P M062X/Def2QZVP Integral=UltraFineGrid SCF=NoSymm Stable=(RExt, Opt)
  IOp(1/33=1)
 ----------------------------------------------------------------------
 1/33=1,38=1,172=1/1;
 2/12=2,17=6,18=5,40=1/2;
 3/5=45,7=101,11=2,25=1,30=1,74=-55,75=-5/1,2,3;
 4/9=2/1;
 5/5=2,38=5/2;
 6/7=2,8=2,9=2,10=2,28=1/1;
 8/6=1,10=90,11=11/1;
 9/8=-3,42=1,46=1/14;
 5/5=2,8=3,17=40,38=5/8(-2);
 6/7=2,8=2,9=2,10=2,28=1/1;
 99/5=1,9=1/99;
 Leave Link    1 at Sat Apr 17 05:33:04 2021, MaxMem=           0 cpu:              11.2 elap:               0.2
 (Enter /s/ls4/users/knvvv/bin/g16sse/l101.exe)
 ONIOM data not found on unit 2.
 ----------------------
 Database calculations.
 ----------------------
 TstMul:  ICh=     0
 TstMul:  Mul=     1
 TstMul:  ICh=     0
 TstMul:  Mul=     1
 Symbolic Z-matrix:
 Charge =  0 Multiplicity = 1
 Mg                    0.        0.        0. 
 H                     0.        0.       -1.70693 
 H                     0.        0.        1.70693 
 
 RdStrC is calling ZToCFu for IStruc=1 NZ=     3.
 PrtBox:  NBox=     1 Levels=  1 BoxLen=    8.00 SMaxX=        6.45
          Shift=            0.000000            0.000000            3.225638
 Box      1 Number                   0 centers from      1 to      3:
 After GenITR:
 ITRead=  0  0  0
 MicOpt= -1 -1 -1
 ITRead=  0  0  0
 MicOpt= -1 -1 -1
 NAtoms=      3 NQM=        3 NQMF=       0 NMMI=      0 NMMIF=      0
                NMic=       0 NMicF=      0.
                    Isotopes and Nuclear Properties:
 (Nuclear quadrupole moments (NQMom) in fm**2, nuclear magnetic moments (NMagM)
  in nuclear magnetons)

  Atom         1           2           3
 IAtWgt=          24           1           1
 AtmWgt=  23.9850450   1.0078250   1.0078250
 NucSpn=           0           1           1
 AtZEff=  -0.0000000  -0.0000000  -0.0000000
 NQMom=    0.0000000   0.0000000   0.0000000
 NMagM=    0.0000000   2.7928460   2.7928460
 AtZNuc=  12.0000000   1.0000000   1.0000000
 No MM parameters found.
 Leave Link  101 at Sat Apr 17 05:33:04 2021, MaxMem=   104857600 cpu:               6.9 elap:               0.2
 (Enter /s/ls4/users/knvvv/bin/g16sse/l202.exe)
                          Input orientation:                          
 ---------------------------------------------------------------------
 Center     Atomic      Atomic             Coordinates (Angstroms)
 Number     Number       Type             X           Y           Z
 ---------------------------------------------------------------------
      1         12           0        0.000000    0.000000    0.000000
      2          1           0        0.000000    0.000000   -1.706934
      3          1           0        0.000000    0.000000    1.706934
 ---------------------------------------------------------------------
                    Distance matrix (angstroms):
                    1          2          3
     1  Mg   0.000000
     2  H    1.706934   0.000000
     3  H    1.706934   3.413868   0.000000
 Stoichiometry    H2Mg
 Framework group  D*H[O(Mg),C*(H.H)]
 Deg. of freedom     1
 Full point group                 D*H     NOp   8
 Largest Abelian subgroup         D2H     NOp   8
 Largest concise Abelian subgroup C2      NOp   2
                         Standard orientation:                         
 ---------------------------------------------------------------------
 Center     Atomic      Atomic             Coordinates (Angstroms)
 Number     Number       Type             X           Y           Z
 ---------------------------------------------------------------------
      1         12           0        0.000000    0.000000    0.000000
      2          1           0        0.000000    0.000000    1.706934
      3          1           0        0.000000    0.000000   -1.706934
 ---------------------------------------------------------------------
 Rotational constants (GHZ):           0.0000000          86.0535026          86.0535026
 Leave Link  202 at Sat Apr 17 05:33:04 2021, MaxMem=   104857600 cpu:               8.5 elap:               0.2
 (Enter /s/ls4/users/knvvv/bin/g16sse/l301.exe)
 Standard basis: def2QZVP (5D, 7F)
 Ernie: Thresh=  0.10000D-02 Tol=  0.10000D-05 Strict=F.
 There are    37 symmetry adapted cartesian basis functions of AG  symmetry.
 There are     7 symmetry adapted cartesian basis functions of B1G symmetry.
 There are    12 symmetry adapted cartesian basis functions of B2G symmetry.
 There are    12 symmetry adapted cartesian basis functions of B3G symmetry.
 There are     4 symmetry adapted cartesian basis functions of AU  symmetry.
 There are    24 symmetry adapted cartesian basis functions of B1U symmetry.
 There are    16 symmetry adapted cartesian basis functions of B2U symmetry.
 There are    16 symmetry adapted cartesian basis functions of B3U symmetry.
 There are    30 symmetry adapted basis functions of AG  symmetry.
 There are     7 symmetry adapted basis functions of B1G symmetry.
 There are    11 symmetry adapted basis functions of B2G symmetry.
 There are    11 symmetry adapted basis functions of B3G symmetry.
 There are     4 symmetry adapted basis functions of AU  symmetry.
 There are    20 symmetry adapted basis functions of B1U symmetry.
 There are    14 symmetry adapted basis functions of B2U symmetry.
 There are    14 symmetry adapted basis functions of B3U symmetry.
   111 basis functions,   166 primitive gaussians,   128 cartesian basis functions
     7 alpha electrons        7 beta electrons
       nuclear repulsion energy         7.5953967218 Hartrees.
 IExCor= 4336 DFT=T Ex+Corr=M062X ExCW=0 ScaHFX=  0.540000
 ScaDFX=  1.000000  1.000000  1.000000  1.000000 ScalE2=  1.000000  1.000000
 IRadAn=      5 IRanWt=     -1 IRanGd=            0 ICorTp=0 IEmpDi=  4
 NAtoms=    3 NActive=    3 NUniq=    2 SFac= 2.25D+00 NAtFMM=   60 NAOKFM=F Big=F
 Integral buffers will be    131072 words long.
 Raffenetti 2 integral format.
 Two-electron integral symmetry is turned on.
 Leave Link  301 at Sat Apr 17 05:33:04 2021, MaxMem=   104857600 cpu:               6.5 elap:               0.2
 (Enter /s/ls4/users/knvvv/bin/g16sse/l302.exe)
 NPDir=0 NMtPBC=     1 NCelOv=     1 NCel=       1 NClECP=     1 NCelD=      1
         NCelK=      1 NCelE2=     1 NClLst=     1 CellRange=     0.0.
 One-electron integrals computed using PRISM.
 One-electron integral symmetry used in STVInt
 PrsmSu:  requested number of processors reduced to:  13 ShMem   1 Linda.
   8 Symmetry operations used in ECPInt.
 ECPInt:  NShTT=     780 NPrTT=    2104 LenC2=     781 LenP2D=    1971.
 LDataN:  DoStor=T MaxTD1= 6 Len=  172
 NBasis=   111 RedAO= T EigKep=  9.98D-04  NBF=    30     7    11    11     4    20    14    14
 NBsUse=   111 1.00D-06 EigRej= -1.00D+00 NBFU=    30     7    11    11     4    20    14    14
 Precomputing XC quadrature grid using
 IXCGrd= 4 IRadAn=           5 IRanWt=          -1 IRanGd=           0 AccXCQ= 0.00D+00.
 Generated NRdTot=       0 NPtTot=           0 NUsed=           0 NTot=          32
 NSgBfM=   128   128   128   128   128 MxSgAt=     3 MxSgA2=     3.
 Leave Link  302 at Sat Apr 17 05:33:09 2021, MaxMem=   104857600 cpu:             233.2 elap:               5.0
 (Enter /s/ls4/users/knvvv/bin/g16sse/l303.exe)
 DipDrv:  MaxL=1.
 Leave Link  303 at Sat Apr 17 05:33:09 2021, MaxMem=   104857600 cpu:              10.2 elap:               0.2
 (Enter /s/ls4/users/knvvv/bin/g16sse/l401.exe)
 SCF N**3 symmetry information disabled.
 ExpMin= 2.92D-02 ExpMax= 6.06D+05 ExpMxC= 1.90D+03 IAcc=3 IRadAn=         5 AccDes= 0.00D+00
 Harris functional with IExCor= 1009 and IRadAn=       5 diagonalized for initial guess.
 HarFok:  IExCor= 1009 AccDes= 0.00D+00 IRadAn=         5 IDoV= 1 UseB2=F ITyADJ=14
 ICtDFT=  3500011 ScaDFX=  1.000000  1.000000  1.000000  1.000000
 FoFCou: FMM=F IPFlag=           0 FMFlag=      100000 FMFlg1=           0
         NFxFlg=           0 DoJE=T BraDBF=F KetDBF=T FulRan=T
         wScrn=  0.000000 ICntrl=       500 IOpCl=  0 I1Cent=   200000004 NGrid=           0
         NMat0=    1 NMatS0=      1 NMatT0=    0 NMatD0=    1 NMtDS0=    0 NMtDT0=    0
 Petite list used in FoFCou.
 Harris En= -201.118279402932    
 JPrj=0 DoOrth=F DoCkMO=F.
 Initial guess orbital symmetries:
       Occupied  (SGG) (SGG) (SGU) (PIU) (PIU) (SGG) (SGU)
       Virtual   (SGG) (PIU) (PIU) (SGG) (SGU) (PIG) (PIG) (DLTG)
                 (DLTG) (PIU) (PIU) (SGG) (SGU) (SGG) (SGU) (PIG)
                 (PIG) (SGU) (PIU) (PIU) (PIU) (PIU) (DLTG) (DLTG)
                 (SGG) (DLTU) (DLTU) (PHIU) (PHIU) (SGG) (PIG)
                 (PIG) (SGU) (PIU) (PIU) (SGU) (SGG) (SGG) (SGU)
                 (PIU) (PIU) (SGG) (PIG) (PIG) (DLTG) (DLTG) (SGU)
                 (DLTG) (DLTG) (PIU) (PIU) (DLTU) (DLTU) (PIG)
                 (PIG) (SGG) (PIG) (PIG) (SGU) (SGG) (PIU) (PIU)
                 (SGU) (SGG) (SGG) (SGU) (DLTG) (DLTG) (PIU) (PIU)
                 (PHIG) (PHIG) (DLTU) (DLTU) (PHIU) (PHIU) (PIG)
                 (PIG) (SGG) (SGU) (PIG) (PIG) (PIU) (PIU) (SGG)
                 (SGU) (DLTG) (DLTG) (DLTU) (DLTU) (PIG) (PIG)
                 (DLTG) (DLTG) (PIU) (PIU) (PIG) (PIG) (SGG) (SGU)
                 (SGG) (SGG) (SGG) (SGG)
 The electronic state of the initial guess is 1-SGG.
 Leave Link  401 at Sat Apr 17 05:33:12 2021, MaxMem=   104857600 cpu:             127.4 elap:               2.7
 (Enter /s/ls4/users/knvvv/bin/g16sse/l502.exe)
 Keep R1 ints in memory in symmetry-blocked form, NReq=65181682.
 FoFCou: FMM=F IPFlag=           0 FMFlag=           0 FMFlg1=           0
         NFxFlg=           0 DoJE=F BraDBF=F KetDBF=F FulRan=T
         wScrn=  0.000000 ICntrl=       600 IOpCl=  0 I1Cent=           0 NGrid=           0
         NMat0=    1 NMatS0=   6216 NMatT0=    0 NMatD0=    1 NMtDS0=    0 NMtDT0=    0
 Petite list used in FoFCou.
 CoulSu:  requested number of processors reduced to:  43 ShMem   1 Linda.
 Closed shell SCF:
 Using DIIS extrapolation, IDIIS=  1040.
 NGot=   104857600 LenX=   102287808 LenY=   102270983
 Requested convergence on RMS density matrix=1.00D-08 within 128 cycles.
 Requested convergence on MAX density matrix=1.00D-06.
 Requested convergence on             energy=1.00D-06.
 No special actions if energy rises.

 Cycle   1  Pass 1  IDiag  1:
 E= -201.171212114518    
 DIIS: error= 2.62D-02 at cycle   1 NSaved=   1.
 NSaved= 1 IEnMin= 1 EnMin= -201.171212114518     IErMin= 1 ErrMin= 2.62D-02
 ErrMax= 2.62D-02  0.00D+00 EMaxC= 1.00D-01 BMatC= 5.34D-02 BMatP= 5.34D-02
 IDIUse=3 WtCom= 7.38D-01 WtEn= 2.62D-01
 Coeff-Com:  0.100D+01
 Coeff-En:   0.100D+01
 Coeff:      0.100D+01
 Gap=     0.284 Goal=   None    Shift=    0.000
 GapD=    0.284 DampG=1.000 DampE=0.500 DampFc=0.5000 IDamp=-1.
 Damping current iteration by 5.00D-01
 RMSDP=2.48D-03 MaxDP=7.09D-02              OVMax= 1.57D-01

 Cycle   2  Pass 1  IDiag  1:
 E= -201.194959041483     Delta-E=       -0.023746926965 Rises=F Damp=T
 DIIS: error= 1.40D-02 at cycle   2 NSaved=   2.
 NSaved= 2 IEnMin= 2 EnMin= -201.194959041483     IErMin= 2 ErrMin= 1.40D-02
 ErrMax= 1.40D-02  0.00D+00 EMaxC= 1.00D-01 BMatC= 7.92D-03 BMatP= 5.34D-02
 IDIUse=3 WtCom= 8.60D-01 WtEn= 1.40D-01
 Coeff-Com: -0.540D+00 0.154D+01
 Coeff-En:   0.000D+00 0.100D+01
 Coeff:     -0.464D+00 0.146D+01
 Gap=     0.283 Goal=   None    Shift=    0.000
 RMSDP=8.65D-04 MaxDP=2.18D-02 DE=-2.37D-02 OVMax= 2.18D-02

 Cycle   3  Pass 1  IDiag  1:
 E= -201.215058282108     Delta-E=       -0.020099240625 Rises=F Damp=F
 DIIS: error= 1.22D-03 at cycle   3 NSaved=   3.
 NSaved= 3 IEnMin= 3 EnMin= -201.215058282108     IErMin= 3 ErrMin= 1.22D-03
 ErrMax= 1.22D-03  0.00D+00 EMaxC= 1.00D-01 BMatC= 6.06D-05 BMatP= 7.92D-03
 IDIUse=3 WtCom= 9.88D-01 WtEn= 1.22D-02
 Coeff-Com: -0.428D-01 0.118D+00 0.925D+00
 Coeff-En:   0.000D+00 0.000D+00 0.100D+01
 Coeff:     -0.423D-01 0.116D+00 0.926D+00
 Gap=     0.290 Goal=   None    Shift=    0.000
 RMSDP=8.11D-05 MaxDP=2.90D-03 DE=-2.01D-02 OVMax= 4.19D-03

 Cycle   4  Pass 1  IDiag  1:
 E= -201.215107597894     Delta-E=       -0.000049315787 Rises=F Damp=F
 DIIS: error= 1.64D-04 at cycle   4 NSaved=   4.
 NSaved= 4 IEnMin= 4 EnMin= -201.215107597894     IErMin= 4 ErrMin= 1.64D-04
 ErrMax= 1.64D-04  0.00D+00 EMaxC= 1.00D-01 BMatC= 9.40D-07 BMatP= 6.06D-05
 IDIUse=3 WtCom= 9.98D-01 WtEn= 1.64D-03
 Coeff-Com:  0.714D-03-0.363D-02 0.870D-01 0.916D+00
 Coeff-En:   0.000D+00 0.000D+00 0.000D+00 0.100D+01
 Coeff:      0.712D-03-0.363D-02 0.869D-01 0.916D+00
 Gap=     0.289 Goal=   None    Shift=    0.000
 RMSDP=1.70D-05 MaxDP=4.42D-04 DE=-4.93D-05 OVMax= 1.07D-03

 Cycle   5  Pass 1  IDiag  1:
 E= -201.215109185043     Delta-E=       -0.000001587149 Rises=F Damp=F
 DIIS: error= 2.31D-05 at cycle   5 NSaved=   5.
 NSaved= 5 IEnMin= 5 EnMin= -201.215109185043     IErMin= 5 ErrMin= 2.31D-05
 ErrMax= 2.31D-05  0.00D+00 EMaxC= 1.00D-01 BMatC= 1.89D-08 BMatP= 9.40D-07
 IDIUse=1 WtCom= 1.00D+00 WtEn= 0.00D+00
 Coeff-Com:  0.811D-03-0.154D-02-0.203D-01-0.778D-01 0.110D+01
 Coeff:      0.811D-03-0.154D-02-0.203D-01-0.778D-01 0.110D+01
 Gap=     0.289 Goal=   None    Shift=    0.000
 RMSDP=2.89D-06 MaxDP=7.28D-05 DE=-1.59D-06 OVMax= 1.22D-04

 Cycle   6  Pass 1  IDiag  1:
 E= -201.215109224499     Delta-E=       -0.000000039455 Rises=F Damp=F
 DIIS: error= 2.75D-06 at cycle   6 NSaved=   6.
 NSaved= 6 IEnMin= 6 EnMin= -201.215109224499     IErMin= 6 ErrMin= 2.75D-06
 ErrMax= 2.75D-06  0.00D+00 EMaxC= 1.00D-01 BMatC= 3.43D-10 BMatP= 1.89D-08
 IDIUse=1 WtCom= 1.00D+00 WtEn= 0.00D+00
 Coeff-Com: -0.293D-05 0.234D-04-0.199D-02-0.152D-01-0.104D-02 0.102D+01
 Coeff:     -0.293D-05 0.234D-04-0.199D-02-0.152D-01-0.104D-02 0.102D+01
 Gap=     0.289 Goal=   None    Shift=    0.000
 RMSDP=3.06D-07 MaxDP=1.29D-05 DE=-3.95D-08 OVMax= 2.91D-05

 Cycle   7  Pass 1  IDiag  1:
 E= -201.215109225405     Delta-E=       -0.000000000906 Rises=F Damp=F
 DIIS: error= 5.07D-07 at cycle   7 NSaved=   7.
 NSaved= 7 IEnMin= 7 EnMin= -201.215109225405     IErMin= 7 ErrMin= 5.07D-07
 ErrMax= 5.07D-07  0.00D+00 EMaxC= 1.00D-01 BMatC= 8.28D-12 BMatP= 3.43D-10
 IDIUse=1 WtCom= 1.00D+00 WtEn= 0.00D+00
 Coeff-Com:  0.130D-05-0.652D-05 0.424D-03 0.165D-02-0.274D-01-0.346D-01
 Coeff-Com:  0.106D+01
 Coeff:      0.130D-05-0.652D-05 0.424D-03 0.165D-02-0.274D-01-0.346D-01
 Coeff:      0.106D+01
 Gap=     0.289 Goal=   None    Shift=    0.000
 RMSDP=5.53D-08 MaxDP=2.14D-06 DE=-9.06D-10 OVMax= 3.42D-06

 Cycle   8  Pass 1  IDiag  1:
 E= -201.215109225425     Delta-E=       -0.000000000020 Rises=F Damp=F
 DIIS: error= 3.48D-08 at cycle   8 NSaved=   8.
 NSaved= 8 IEnMin= 8 EnMin= -201.215109225425     IErMin= 8 ErrMin= 3.48D-08
 ErrMax= 3.48D-08  0.00D+00 EMaxC= 1.00D-01 BMatC= 4.54D-14 BMatP= 8.28D-12
 IDIUse=1 WtCom= 1.00D+00 WtEn= 0.00D+00
 Coeff-Com:  0.835D-06-0.164D-05-0.347D-04-0.951D-04 0.307D-02-0.677D-02
 Coeff-Com: -0.902D-01 0.109D+01
 Coeff:      0.835D-06-0.164D-05-0.347D-04-0.951D-04 0.307D-02-0.677D-02
 Coeff:     -0.902D-01 0.109D+01
 Gap=     0.289 Goal=   None    Shift=    0.000
 RMSDP=8.98D-09 MaxDP=2.83D-07 DE=-2.01D-11 OVMax= 1.80D-07

 SCF Done:  E(RM062X) =  -201.215109225     A.U. after    8 cycles
            NFock=  8  Conv=0.90D-08     -V/T= 2.0038
 KE= 2.004615878662D+02 PE=-4.961357847075D+02 EE= 8.686369089400D+01
 Leave Link  502 at Sat Apr 17 05:33:43 2021, MaxMem=   104857600 cpu:            1436.3 elap:              30.6
 (Enter /s/ls4/users/knvvv/bin/g16sse/l601.exe)
 Copying SCF densities to generalized density rwf, IOpCl= 0 IROHF=0.

 **********************************************************************

            Population analysis using the SCF density.

 **********************************************************************

 Orbital symmetries:
       Occupied  (SGG) (SGG) (PIU) (PIU) (SGU) (SGG) (SGU)
       Virtual   (PIU) (PIU) (SGG) (SGG) (SGU) (PIU) (PIU) (DLTG)
                 (DLTG) (PIG) (PIG) (SGG) (SGU) (SGG) (SGU) (PIG)
                 (PIG) (DLTG) (DLTG) (PIU) (PIU) (SGG) (SGU) (PIU)
                 (PIU) (PHIU) (PHIU) (DLTU) (DLTU) (SGG) (PIG)
                 (PIG) (SGU) (PIU) (PIU) (SGU) (SGG) (SGG) (SGU)
                 (PIU) (PIU) (SGG) (PIG) (PIG) (DLTG) (DLTG) (SGU)
                 (DLTG) (DLTG) (PIU) (PIU) (DLTU) (DLTU) (PIG)
                 (PIG) (SGG) (PIG) (PIG) (SGU) (SGG) (PIU) (PIU)
                 (SGU) (SGG) (SGG) (SGU) (DLTG) (DLTG) (DLTU) (DLTU)
                 (PHIG) (PHIG) (PHIU) (PHIU) (PIU) (PIU) (PIG)
                 (PIG) (SGG) (SGU) (PIG) (PIG) (PIU) (PIU) (SGG)
                 (SGU) (DLTG) (DLTG) (DLTU) (DLTU) (PIG) (PIG)
                 (PIU) (PIU) (SGU) (SGG) (DLTG) (DLTG) (PIG) (PIG)
                 (SGG) (SGG) (SGG) (SGG)
 The electronic state is 1-SGG.
 Alpha  occ. eigenvalues --  -47.58325  -3.33155  -2.02467  -2.02467  -2.01920
 Alpha  occ. eigenvalues --   -0.35833  -0.30452
 Alpha virt. eigenvalues --   -0.01553  -0.01553   0.00420   0.03882   0.04579
 Alpha virt. eigenvalues --    0.08449   0.08449   0.09750   0.09750   0.09938
 Alpha virt. eigenvalues --    0.09938   0.15422   0.20995   0.27691   0.30261
 Alpha virt. eigenvalues --    0.40973   0.40973   0.42508   0.42508   0.43199
 Alpha virt. eigenvalues --    0.43199   0.45795   0.46588   0.47590   0.47590
 Alpha virt. eigenvalues --    0.51875   0.51875   0.52405   0.52405   0.67494
 Alpha virt. eigenvalues --    0.77250   0.77250   0.79278   1.00424   1.00424
 Alpha virt. eigenvalues --    1.09817   1.17844   1.27133   1.29279   1.42740
 Alpha virt. eigenvalues --    1.42740   1.55188   1.57965   1.57965   1.59133
 Alpha virt. eigenvalues --    1.59134   1.69669   1.88674   1.88675   1.99522
 Alpha virt. eigenvalues --    1.99522   2.01942   2.01943   2.11494   2.11494
 Alpha virt. eigenvalues --    2.34732   2.41844   2.41844   2.46681   2.55089
 Alpha virt. eigenvalues --    2.60070   2.60070   2.82531   3.21939   4.96271
 Alpha virt. eigenvalues --    5.01822   5.48693   5.48696   5.49151   5.49153
 Alpha virt. eigenvalues --    5.49662   5.49662   5.50220   5.50220   5.51493
 Alpha virt. eigenvalues --    5.51493   5.55548   5.55548   5.71820   5.75359
 Alpha virt. eigenvalues --    7.15871   7.15871   7.17856   7.17856   7.21034
 Alpha virt. eigenvalues --    7.29200   7.40228   7.40229   7.48372   7.48372
 Alpha virt. eigenvalues --    7.66838   7.66838   7.75372   7.75372   8.01039
 Alpha virt. eigenvalues --    8.13988   8.16119   8.16120   8.25752   8.25752
 Alpha virt. eigenvalues --    8.82056   9.44753  34.75187 195.43267
          Condensed to atoms (all electrons):
               1          2          3
     1  Mg  10.610039   0.330110   0.330110
     2  H    0.330110   1.046283  -0.011522
     3  H    0.330110  -0.011522   1.046283
 Mulliken charges:
               1
     1  Mg   0.729741
     2  H   -0.364871
     3  H   -0.364871
 Sum of Mulliken charges =  -0.00000
 Mulliken charges with hydrogens summed into heavy atoms:
               1
     1  Mg  -0.000000
 Electronic spatial extent (au):  <R**2>=             53.4277
 Charge=             -0.0000 electrons
 Dipole moment (field-independent basis, Debye):
    X=             -0.0000    Y=              0.0000    Z=              0.0000  Tot=              0.0000
 Quadrupole moment (field-independent basis, Debye-Ang):
   XX=            -10.5950   YY=            -10.5950   ZZ=            -22.6827
   XY=              0.0000   XZ=              0.0000   YZ=             -0.0000
 Traceless Quadrupole moment (field-independent basis, Debye-Ang):
   XX=              4.0293   YY=              4.0293   ZZ=             -8.0585
   XY=              0.0000   XZ=              0.0000   YZ=             -0.0000
 Octapole moment (field-independent basis, Debye-Ang**2):
  XXX=             -0.0000  YYY=              0.0000  ZZZ=              0.0000  XYY=             -0.0000
  XXY=              0.0000  XXZ=              0.0000  XZZ=             -0.0000  YZZ=              0.0000
  YYZ=              0.0000  XYZ=             -0.0000
 Hexadecapole moment (field-independent basis, Debye-Ang**3):
 XXXX=            -16.4415 YYYY=            -16.4415 ZZZZ=           -117.8249 XXXY=              0.0000
 XXXZ=              0.0000 YYYX=              0.0000 YYYZ=             -0.0000 ZZZX=              0.0000
 ZZZY=             -0.0000 XXYY=             -5.4805 XXZZ=            -20.2586 YYZZ=            -20.2586
 XXYZ=             -0.0000 YYXZ=              0.0000 ZZXY=              0.0000
 N-N= 7.595396721842D+00 E-N=-4.961357849440D+02  KE= 2.004615878662D+02
 No NMR shielding tensors so no spin-rotation constants.
 Leave Link  601 at Sat Apr 17 05:33:45 2021, MaxMem=   104857600 cpu:              94.4 elap:               2.0
 (Enter /s/ls4/users/knvvv/bin/g16sse/l801.exe)
 DoSCS=F DFT=T ScalE2(SS,OS)=  1.000000  1.000000
 Range of M.O.s used for correlation:     1   111
 NBasis=   111 NAE=     7 NBE=     7 NFC=     0 NFV=     0
 NROrb=    111 NOA=     7 NOB=     7 NVA=   104 NVB=   104

 **** Warning!!: The largest alpha MO coefficient is  0.13778164D+02

 Leave Link  801 at Sat Apr 17 05:33:45 2021, MaxMem=   104857600 cpu:               3.2 elap:               0.1
 (Enter /s/ls4/users/knvvv/bin/g16sse/l914.exe)
 RHF ground state
 Doing stability rather than CIS.
 Two-electron integrals replicated using symmetry.
 MDV=   104857600 DFT=T DoStab=T Mixed=T DoRPA=F DoScal=F NonHer=F
 Making orbital integer symmetry assigments:
 Orbital symmetries:
       Occupied  (SGG) (SGG) (PIU) (PIU) (SGU) (SGG) (SGU)
       Virtual   (PIU) (PIU) (SGG) (SGG) (SGU) (PIU) (PIU) (DLTG)
                 (DLTG) (PIG) (PIG) (SGG) (SGU) (SGG) (SGU) (PIG)
                 (PIG) (DLTG) (DLTG) (PIU) (PIU) (SGG) (SGU) (PIU)
                 (PIU) (PHIU) (PHIU) (DLTU) (DLTU) (SGG) (PIG)
                 (PIG) (SGU) (PIU) (PIU) (SGU) (SGG) (SGG) (SGU)
                 (PIU) (PIU) (SGG) (PIG) (PIG) (DLTG) (DLTG) (SGU)
                 (DLTG) (DLTG) (PIU) (PIU) (DLTU) (DLTU) (PIG)
                 (PIG) (SGG) (PIG) (PIG) (SGU) (SGG) (PIU) (PIU)
                 (SGU) (SGG) (SGG) (SGU) (DLTG) (DLTG) (DLTU) (DLTU)
                 (PHIG) (PHIG) (PHIU) (PHIU) (PIU) (PIU) (PIG)
                 (PIG) (SGG) (SGU) (PIG) (PIG) (PIU) (PIU) (SGG)
                 (SGU) (DLTG) (DLTG) (DLTU) (DLTU) (PIG) (PIG)
                 (PIU) (PIU) (SGU) (SGG) (DLTG) (DLTG) (PIG) (PIG)
                 (SGG) (SGG) (SGG) (SGG)
    48 initial guesses have been made.
 Convergence on wavefunction:    0.001000000000000
 Davidson Disk Diagonalization:  ConvIn= 1.00D-03 SkipCon=T Conv= 1.00D-03.
 Max sub-space:  2000 roots to seek:    48 dimension of matrix:         1456
 Iteration     1 Dimension    48 NMult     0 NNew     48
 Estimated number of processors is:   46
 CISAX will form     1 AO SS matrices at one time.
 NMat=     1 NSing=     1 JSym2X= 2.
 FoFJK:  IHMeth= 1 ICntrl=       0 DoSepK=F KAlg= 0 I1Cent=           0 FoldK=F
 IRaf= 990000000 NMat=       1 IRICut=       1 DoRegI=T DoRafI=F ISym2E= 2 IDoP0=0 IntGTp=1.
 FoFCou: FMM=F IPFlag=           0 FMFlag=      100000 FMFlg1=           0
         NFxFlg=           0 DoJE=F BraDBF=F KetDBF=F FulRan=T
         wScrn=  0.000000 ICntrl=         0 IOpCl=  0 I1Cent=           0 NGrid=           0
         NMat0=    1 NMatS0=      1 NMatT0=    0 NMatD0=    1 NMtDS0=    0 NMtDT0=    0
 Integrals replicated using symmetry in FoFCou.
 CoulSu:  requested number of processors reduced to:  47 ShMem   1 Linda.
 NMat=     1 NSing=     1 JSym2X= 2.
 CoulSu:  requested number of processors reduced to:  47 ShMem   1 Linda.
 NMat=     1 NSing=     1 JSym2X= 2.
 CoulSu:  requested number of processors reduced to:  47 ShMem   1 Linda.
 NMat=     1 NSing=     1 JSym2X= 2.
 CoulSu:  requested number of processors reduced to:  47 ShMem   1 Linda.
 NMat=     1 NSing=     1 JSym2X= 2.
 CoulSu:  requested number of processors reduced to:  47 ShMem   1 Linda.
 NMat=     1 NSing=     1 JSym2X= 2.
 CoulSu:  requested number of processors reduced to:  47 ShMem   1 Linda.
 NMat=     1 NSing=     1 JSym2X= 2.
 CoulSu:  requested number of processors reduced to:  47 ShMem   1 Linda.
 NMat=     1 NSing=     1 JSym2X= 2.
 CoulSu:  requested number of processors reduced to:  47 ShMem   1 Linda.
 NMat=     1 NSing=     1 JSym2X= 2.
 CoulSu:  requested number of processors reduced to:  47 ShMem   1 Linda.
 NMat=     1 NSing=     1 JSym2X= 2.
 CoulSu:  requested number of processors reduced to:  47 ShMem   1 Linda.
 NMat=     1 NSing=     1 JSym2X= 2.
 CoulSu:  requested number of processors reduced to:  47 ShMem   1 Linda.
 NMat=     1 NSing=     1 JSym2X= 2.
 CoulSu:  requested number of processors reduced to:  47 ShMem   1 Linda.
 NMat=     1 NSing=     1 JSym2X= 2.
 CoulSu:  requested number of processors reduced to:  47 ShMem   1 Linda.
 NMat=     1 NSing=     1 JSym2X= 2.
 CoulSu:  requested number of processors reduced to:  47 ShMem   1 Linda.
 NMat=     1 NSing=     1 JSym2X= 2.
 CoulSu:  requested number of processors reduced to:  47 ShMem   1 Linda.
 NMat=     1 NSing=     1 JSym2X= 2.
 CoulSu:  requested number of processors reduced to:  47 ShMem   1 Linda.
 NMat=     1 NSing=     1 JSym2X= 2.
 CoulSu:  requested number of processors reduced to:  47 ShMem   1 Linda.
 NMat=     1 NSing=     1 JSym2X= 2.
 CoulSu:  requested number of processors reduced to:  47 ShMem   1 Linda.
 NMat=     1 NSing=     1 JSym2X= 2.
 CoulSu:  requested number of processors reduced to:  47 ShMem   1 Linda.
 NMat=     1 NSing=     1 JSym2X= 2.
 CoulSu:  requested number of processors reduced to:  47 ShMem   1 Linda.
 NMat=     1 NSing=     1 JSym2X= 2.
 CoulSu:  requested number of processors reduced to:  47 ShMem   1 Linda.
 NMat=     1 NSing=     1 JSym2X= 2.
 CoulSu:  requested number of processors reduced to:  47 ShMem   1 Linda.
 NMat=     1 NSing=     1 JSym2X= 2.
 CoulSu:  requested number of processors reduced to:  47 ShMem   1 Linda.
 NMat=     1 NSing=     1 JSym2X= 2.
 CoulSu:  requested number of processors reduced to:  47 ShMem   1 Linda.
 NMat=     1 NSing=     0 JSym2X= 2.
 CoulSu:  requested number of processors reduced to:  47 ShMem   1 Linda.
 NMat=     1 NSing=     0 JSym2X= 2.
 CoulSu:  requested number of processors reduced to:  47 ShMem   1 Linda.
 NMat=     1 NSing=     0 JSym2X= 2.
 CoulSu:  requested number of processors reduced to:  47 ShMem   1 Linda.
 NMat=     1 NSing=     0 JSym2X= 2.
 CoulSu:  requested number of processors reduced to:  47 ShMem   1 Linda.
 NMat=     1 NSing=     0 JSym2X= 2.
 CoulSu:  requested number of processors reduced to:  47 ShMem   1 Linda.
 NMat=     1 NSing=     0 JSym2X= 2.
 CoulSu:  requested number of processors reduced to:  47 ShMem   1 Linda.
 NMat=     1 NSing=     0 JSym2X= 2.
 CoulSu:  requested number of processors reduced to:  47 ShMem   1 Linda.
 NMat=     1 NSing=     0 JSym2X= 2.
 CoulSu:  requested number of processors reduced to:  47 ShMem   1 Linda.
 NMat=     1 NSing=     0 JSym2X= 2.
 CoulSu:  requested number of processors reduced to:  47 ShMem   1 Linda.
 NMat=     1 NSing=     0 JSym2X= 2.
 CoulSu:  requested number of processors reduced to:  47 ShMem   1 Linda.
 NMat=     1 NSing=     0 JSym2X= 2.
 CoulSu:  requested number of processors reduced to:  47 ShMem   1 Linda.
 NMat=     1 NSing=     0 JSym2X= 2.
 CoulSu:  requested number of processors reduced to:  47 ShMem   1 Linda.
 NMat=     1 NSing=     0 JSym2X= 2.
 CoulSu:  requested number of processors reduced to:  47 ShMem   1 Linda.
 NMat=     1 NSing=     0 JSym2X= 2.
 CoulSu:  requested number of processors reduced to:  47 ShMem   1 Linda.
 NMat=     1 NSing=     0 JSym2X= 2.
 CoulSu:  requested number of processors reduced to:  47 ShMem   1 Linda.
 NMat=     1 NSing=     0 JSym2X= 2.
 CoulSu:  requested number of processors reduced to:  47 ShMem   1 Linda.
 NMat=     1 NSing=     0 JSym2X= 2.
 CoulSu:  requested number of processors reduced to:  47 ShMem   1 Linda.
 NMat=     1 NSing=     0 JSym2X= 2.
 CoulSu:  requested number of processors reduced to:  47 ShMem   1 Linda.
 NMat=     1 NSing=     0 JSym2X= 2.
 CoulSu:  requested number of processors reduced to:  47 ShMem   1 Linda.
 NMat=     1 NSing=     0 JSym2X= 2.
 CoulSu:  requested number of processors reduced to:  47 ShMem   1 Linda.
 NMat=     1 NSing=     0 JSym2X= 2.
 CoulSu:  requested number of processors reduced to:  47 ShMem   1 Linda.
 NMat=     1 NSing=     0 JSym2X= 2.
 CoulSu:  requested number of processors reduced to:  47 ShMem   1 Linda.
 NMat=     1 NSing=     0 JSym2X= 2.
 CoulSu:  requested number of processors reduced to:  47 ShMem   1 Linda.
 NMat=     1 NSing=     0 JSym2X= 2.
 CoulSu:  requested number of processors reduced to:  47 ShMem   1 Linda.
 New state      1 was old state      6
 Excitation Energies [eV] at current iteration:
 Root      1 :     4.095604312499193
 Root      2 :     4.797012461474772
 Root      3 :     4.797012461483817
 Root      4 :     5.099265839345647
 Root      5 :     5.451731602814080
 Root      6 :     5.451731602823035
 Root      7 :     5.716961441380299
 Root      8 :     5.716961441386015
 Root      9 :     7.323719476093863
 Root     10 :     7.354434454513901
 Root     11 :     7.566358170978920
 Root     12 :     7.566358170991029
 Root     13 :     7.689820006789816
 Root     14 :     7.953956736161834
 Root     15 :     8.024525427298697
 Root     16 :     8.282490048152122
 Root     17 :     8.282490048195365
 Root     18 :     8.495127750182133
 Root     19 :     8.495222092255460
 Root     20 :     8.548217011076201
 Root     21 :     8.548217011080624
 Root     22 :     8.556378230243144
 Root     23 :     8.556378230252829
 Root     24 :     8.628513227496914
 Root     25 :     8.628617219353394
 Root     26 :     8.799812699754614
 Root     27 :     9.005622795977079
 Root     28 :     9.014989130550237
 Root     29 :     9.014989130558678
 Root     30 :     9.145360140640747
 Root     31 :     9.330907804476791
 Root     32 :     9.574978399795350
 Root     33 :     9.574978399868286
 Root     34 :     9.693707870331359
 Root     35 :    10.055777100045310
 Root     36 :    10.055777100046680
 Root     37 :    10.060544877153640
 Root     38 :    10.060688143947690
 Root     39 :    10.302644340759470
 Root     40 :    10.302644340762600
 Root     41 :    10.404077279371190
 Root     42 :    10.815282439362530
 Root     43 :    10.815480871481430
 Root     44 :    10.855971460629330
 Root     45 :    10.855971460638490
 Root     46 :    12.118148107764510
 Root     47 :    12.389328621285370
 Root     48 :    12.943092969861170
 Iteration     2 Dimension    96 NMult    48 NNew     48
 Estimated number of processors is:   46
 CISAX will form     1 AO SS matrices at one time.
 NMat=     1 NSing=     1 JSym2X= 2.
 CoulSu:  requested number of processors reduced to:  47 ShMem   1 Linda.
 NMat=     1 NSing=     1 JSym2X= 2.
 CoulSu:  requested number of processors reduced to:  47 ShMem   1 Linda.
 NMat=     1 NSing=     1 JSym2X= 2.
 CoulSu:  requested number of processors reduced to:  47 ShMem   1 Linda.
 NMat=     1 NSing=     1 JSym2X= 2.
 CoulSu:  requested number of processors reduced to:  47 ShMem   1 Linda.
 NMat=     1 NSing=     1 JSym2X= 2.
 CoulSu:  requested number of processors reduced to:  47 ShMem   1 Linda.
 NMat=     1 NSing=     1 JSym2X= 2.
 CoulSu:  requested number of processors reduced to:  47 ShMem   1 Linda.
 NMat=     1 NSing=     1 JSym2X= 2.
 CoulSu:  requested number of processors reduced to:  47 ShMem   1 Linda.
 NMat=     1 NSing=     1 JSym2X= 2.
 CoulSu:  requested number of processors reduced to:  47 ShMem   1 Linda.
 NMat=     1 NSing=     1 JSym2X= 2.
 CoulSu:  requested number of processors reduced to:  47 ShMem   1 Linda.
 NMat=     1 NSing=     1 JSym2X= 2.
 CoulSu:  requested number of processors reduced to:  47 ShMem   1 Linda.
 NMat=     1 NSing=     1 JSym2X= 2.
 CoulSu:  requested number of processors reduced to:  47 ShMem   1 Linda.
 NMat=     1 NSing=     1 JSym2X= 2.
 CoulSu:  requested number of processors reduced to:  47 ShMem   1 Linda.
 NMat=     1 NSing=     1 JSym2X= 2.
 CoulSu:  requested number of processors reduced to:  47 ShMem   1 Linda.
 NMat=     1 NSing=     1 JSym2X= 2.
 CoulSu:  requested number of processors reduced to:  47 ShMem   1 Linda.
 NMat=     1 NSing=     1 JSym2X= 2.
 CoulSu:  requested number of processors reduced to:  47 ShMem   1 Linda.
 NMat=     1 NSing=     1 JSym2X= 2.
 CoulSu:  requested number of processors reduced to:  47 ShMem   1 Linda.
 NMat=     1 NSing=     1 JSym2X= 2.
 CoulSu:  requested number of processors reduced to:  47 ShMem   1 Linda.
 NMat=     1 NSing=     1 JSym2X= 2.
 CoulSu:  requested number of processors reduced to:  47 ShMem   1 Linda.
 NMat=     1 NSing=     1 JSym2X= 2.
 CoulSu:  requested number of processors reduced to:  47 ShMem   1 Linda.
 NMat=     1 NSing=     1 JSym2X= 2.
 CoulSu:  requested number of processors reduced to:  47 ShMem   1 Linda.
 NMat=     1 NSing=     1 JSym2X= 2.
 CoulSu:  requested number of processors reduced to:  47 ShMem   1 Linda.
 NMat=     1 NSing=     1 JSym2X= 2.
 CoulSu:  requested number of processors reduced to:  47 ShMem   1 Linda.
 NMat=     1 NSing=     1 JSym2X= 2.
 CoulSu:  requested number of processors reduced to:  47 ShMem   1 Linda.
 NMat=     1 NSing=     1 JSym2X= 2.
 CoulSu:  requested number of processors reduced to:  47 ShMem   1 Linda.
 NMat=     1 NSing=     0 JSym2X= 2.
 CoulSu:  requested number of processors reduced to:  47 ShMem   1 Linda.
 NMat=     1 NSing=     0 JSym2X= 2.
 CoulSu:  requested number of processors reduced to:  47 ShMem   1 Linda.
 NMat=     1 NSing=     0 JSym2X= 2.
 CoulSu:  requested number of processors reduced to:  47 ShMem   1 Linda.
 NMat=     1 NSing=     0 JSym2X= 2.
 CoulSu:  requested number of processors reduced to:  47 ShMem   1 Linda.
 NMat=     1 NSing=     0 JSym2X= 2.
 CoulSu:  requested number of processors reduced to:  47 ShMem   1 Linda.
 NMat=     1 NSing=     0 JSym2X= 2.
 CoulSu:  requested number of processors reduced to:  47 ShMem   1 Linda.
 NMat=     1 NSing=     0 JSym2X= 2.
 CoulSu:  requested number of processors reduced to:  47 ShMem   1 Linda.
 NMat=     1 NSing=     0 JSym2X= 2.
 CoulSu:  requested number of processors reduced to:  47 ShMem   1 Linda.
 NMat=     1 NSing=     0 JSym2X= 2.
 CoulSu:  requested number of processors reduced to:  47 ShMem   1 Linda.
 NMat=     1 NSing=     0 JSym2X= 2.
 CoulSu:  requested number of processors reduced to:  47 ShMem   1 Linda.
 NMat=     1 NSing=     0 JSym2X= 2.
 CoulSu:  requested number of processors reduced to:  47 ShMem   1 Linda.
 NMat=     1 NSing=     0 JSym2X= 2.
 CoulSu:  requested number of processors reduced to:  47 ShMem   1 Linda.
 NMat=     1 NSing=     0 JSym2X= 2.
 CoulSu:  requested number of processors reduced to:  47 ShMem   1 Linda.
 NMat=     1 NSing=     0 JSym2X= 2.
 CoulSu:  requested number of processors reduced to:  47 ShMem   1 Linda.
 NMat=     1 NSing=     0 JSym2X= 2.
 CoulSu:  requested number of processors reduced to:  47 ShMem   1 Linda.
 NMat=     1 NSing=     0 JSym2X= 2.
 CoulSu:  requested number of processors reduced to:  47 ShMem   1 Linda.
 NMat=     1 NSing=     0 JSym2X= 2.
 CoulSu:  requested number of processors reduced to:  47 ShMem   1 Linda.
 NMat=     1 NSing=     0 JSym2X= 2.
 CoulSu:  requested number of processors reduced to:  47 ShMem   1 Linda.
 NMat=     1 NSing=     0 JSym2X= 2.
 CoulSu:  requested number of processors reduced to:  47 ShMem   1 Linda.
 NMat=     1 NSing=     0 JSym2X= 2.
 CoulSu:  requested number of processors reduced to:  47 ShMem   1 Linda.
 NMat=     1 NSing=     0 JSym2X= 2.
 CoulSu:  requested number of processors reduced to:  47 ShMem   1 Linda.
 NMat=     1 NSing=     0 JSym2X= 2.
 CoulSu:  requested number of processors reduced to:  47 ShMem   1 Linda.
 NMat=     1 NSing=     0 JSym2X= 2.
 CoulSu:  requested number of processors reduced to:  47 ShMem   1 Linda.
 NMat=     1 NSing=     0 JSym2X= 2.
 CoulSu:  requested number of processors reduced to:  47 ShMem   1 Linda.
 Root      1 not converged, maximum delta is    0.066489864898634
 Excitation Energies [eV] at current iteration:
 Root      1 :     3.649600853691942   Change is   -0.446003458807250
 Root      2 :     4.551286017174299   Change is   -0.547979822171348
 Root      3 :     4.693180920132078   Change is   -0.103831541342694
 Root      4 :     4.693180920140742   Change is   -0.103831541343074
 Root      5 :     5.308385918287242   Change is   -0.408575523093057
 Root      6 :     5.308385918291133   Change is   -0.408575523094882
 Root      7 :     5.401640545676778   Change is   -0.050091057137302
 Root      8 :     5.401640545685739   Change is   -0.050091057137296
 Root      9 :     7.150158316022567   Change is   -0.173561160071296
 Root     10 :     7.298018269780809   Change is   -0.056416184733092
 Root     11 :     7.413785925896875   Change is   -0.152572245082044
 Root     12 :     7.413785925908307   Change is   -0.152572245082721
 Root     13 :     7.515965122266747   Change is   -0.173854884523069
 Root     14 :     7.655012028214385   Change is   -0.298944707947449
 Root     15 :     7.911151268326821   Change is   -0.113374158971876
 Root     16 :     8.224268444926937   Change is   -0.058221603225185
 Root     17 :     8.224268444968089   Change is   -0.058221603227276
 Root     18 :     8.325585803197541   Change is   -0.222631207878661
 Root     19 :     8.325585803201999   Change is   -0.222631207878624
 Root     20 :     8.467038177030068   Change is   -0.028089573152066
 Root     21 :     8.467181533585277   Change is   -0.028040558670182
 Root     22 :     8.515836064006038   Change is   -0.040542166237105
 Root     23 :     8.515836064016346   Change is   -0.040542166236483
 Root     24 :     8.536585446958327   Change is   -0.091927780538587
 Root     25 :     8.536795849884539   Change is   -0.091821369468855
 Root     26 :     8.625673974463869   Change is   -0.379948821513209
 Root     27 :     8.690012522099737   Change is   -0.109800177654877
 Root     28 :     8.890821328654145   Change is   -0.124167801896092
 Root     29 :     8.890821328659046   Change is   -0.124167801899633
 Root     30 :     8.977091343564812   Change is   -0.168268797075935
 Root     31 :     9.118361383528063   Change is   -0.212546420948727
 Root     32 :     9.519360672444034   Change is   -0.055617727351316
 Root     33 :     9.519360672512493   Change is   -0.055617727355793
 Root     34 :     9.613782936430789   Change is   -0.079924933900570
 Root     35 :     9.905980532565628   Change is   -0.149796567479684
 Root     36 :     9.905980532567121   Change is   -0.149796567479557
 Root     37 :    10.028838627214400   Change is   -0.031706249939239
 Root     38 :    10.029083240832390   Change is   -0.031604903115304
 Root     39 :    10.228529534195460   Change is   -0.074114806564014
 Root     40 :    10.228529534198690   Change is   -0.074114806563905
 Root     41 :    10.270738180768850   Change is   -0.133339098602345
 Root     42 :    10.355145242963890   Change is   -0.460137196398642
 Root     43 :    10.356175285479240   Change is   -0.459305586002184
 Root     44 :    10.586860984258960   Change is   -0.269110476370367
 Root     45 :    10.586860984272500   Change is   -0.269110476365987
 Root     46 :    11.505852964853820   Change is   -0.612295142910686
 Root     47 :    11.518462370898650   Change is   -1.424630598962521
 Root     48 :    11.803355354066630   Change is   -0.585973267218740
 Iteration     3 Dimension   102 NMult    96 NNew      6
 Estimated number of processors is:   46
 CISAX will form     1 AO SS matrices at one time.
 NMat=     1 NSing=     1 JSym2X= 2.
 CoulSu:  requested number of processors reduced to:  47 ShMem   1 Linda.
 NMat=     1 NSing=     1 JSym2X= 2.
 CoulSu:  requested number of processors reduced to:  47 ShMem   1 Linda.
 NMat=     1 NSing=     1 JSym2X= 2.
 CoulSu:  requested number of processors reduced to:  47 ShMem   1 Linda.
 NMat=     1 NSing=     0 JSym2X= 2.
 CoulSu:  requested number of processors reduced to:  47 ShMem   1 Linda.
 NMat=     1 NSing=     0 JSym2X= 2.
 CoulSu:  requested number of processors reduced to:  47 ShMem   1 Linda.
 NMat=     1 NSing=     0 JSym2X= 2.
 CoulSu:  requested number of processors reduced to:  47 ShMem   1 Linda.
 DSYEVD-2 returned Info=         154 IAlg= 4 N=   102 NDim=   102 NE2=      949435 trying  DSYEV.
 Root      1 not converged, maximum delta is    0.004080497241831
 Excitation Energies [eV] at current iteration:
 Root      1 :     3.645771477450401   Change is   -0.003829376241541
 Root      2 :     4.547203243394458   Change is   -0.004082773779841
 Root      3 :     4.692913203276939   Change is   -0.000267716855138
 Root      4 :     5.401568303538943   Change is   -0.000072242146796
 Root      5 :     5.401576255488419   Change is   -0.000064290188359
 Root      6 :     7.296551342055040   Change is   -0.001466927725769
 Iteration     4 Dimension   108 NMult   102 NNew      6
 Estimated number of processors is:   46
 CISAX will form     1 AO SS matrices at one time.
 NMat=     1 NSing=     1 JSym2X= 2.
 CoulSu:  requested number of processors reduced to:  47 ShMem   1 Linda.
 NMat=     1 NSing=     1 JSym2X= 2.
 CoulSu:  requested number of processors reduced to:  47 ShMem   1 Linda.
 NMat=     1 NSing=     1 JSym2X= 2.
 CoulSu:  requested number of processors reduced to:  47 ShMem   1 Linda.
 NMat=     1 NSing=     0 JSym2X= 2.
 CoulSu:  requested number of processors reduced to:  47 ShMem   1 Linda.
 NMat=     1 NSing=     0 JSym2X= 2.
 CoulSu:  requested number of processors reduced to:  47 ShMem   1 Linda.
 NMat=     1 NSing=     0 JSym2X= 2.
 CoulSu:  requested number of processors reduced to:  47 ShMem   1 Linda.
 Root      1 has converged.
 Excitation Energies [eV] at current iteration:
 Root      1 :     3.645711354951260   Change is   -0.000060122499141
 Root      2 :     4.547086474749925   Change is   -0.000116768644533
 Root      3 :     4.692911995509393   Change is   -0.000001207767547
 Root      4 :     5.401567008210773   Change is   -0.000001295328169
 Root      5 :     5.401567037955648   Change is   -0.000009217532770
 Root      6 :     7.296435730645816   Change is   -0.000115611409224
 Convergence achieved on expansion vectors.
 ***********************************************************************
 Stability analysis using <AA,BB:AA,BB> singles matrix:
 ***********************************************************************
 1PDM for each excited state written to RWF  633
 Ground to excited state transition densities written to RWF  633

 Eigenvectors of the stability matrix:
 
 Eigenvector   1:      Triplet-SGU  Eigenvalue= 0.1339774  <S**2>=2.000
       7 -> 10         0.61784
       7 -> 11        -0.26085
       7 -> 19         0.17261
 The wavefunction is stable under the perturbations considered.
 Leave Link  914 at Sat Apr 17 05:35:00 2021, MaxMem=   104857600 cpu:            3569.0 elap:              75.3
 (Enter /s/ls4/users/knvvv/bin/g16sse/l508.exe)
 The wavefunction is already stable.
 Leave Link  508 at Sat Apr 17 05:35:00 2021, MaxMem=   104857600 cpu:               2.2 elap:               0.1
 (Enter /s/ls4/users/knvvv/bin/g16sse/l601.exe)
 Copying SCF densities to generalized density rwf, IOpCl= 0 IROHF=0.

 **********************************************************************

            Population analysis using the SCF density.

 **********************************************************************

 Orbital symmetries:
       Occupied  (SGG) (SGG) (PIU) (PIU) (SGU) (SGG) (SGU)
       Virtual   (PIU) (PIU) (SGG) (SGG) (SGU) (PIU) (PIU) (DLTG)
                 (DLTG) (PIG) (PIG) (SGG) (SGU) (SGG) (SGU) (PIG)
                 (PIG) (DLTG) (DLTG) (PIU) (PIU) (SGG) (SGU) (PIU)
                 (PIU) (PHIU) (PHIU) (DLTU) (DLTU) (SGG) (PIG)
                 (PIG) (SGU) (PIU) (PIU) (SGU) (SGG) (SGG) (SGU)
                 (PIU) (PIU) (SGG) (PIG) (PIG) (DLTG) (DLTG) (SGU)
                 (DLTG) (DLTG) (PIU) (PIU) (DLTU) (DLTU) (PIG)
                 (PIG) (SGG) (PIG) (PIG) (SGU) (SGG) (PIU) (PIU)
                 (SGU) (SGG) (SGG) (SGU) (DLTG) (DLTG) (DLTU) (DLTU)
                 (PHIG) (PHIG) (PHIU) (PHIU) (PIU) (PIU) (PIG)
                 (PIG) (SGG) (SGU) (PIG) (PIG) (PIU) (PIU) (SGG)
                 (SGU) (DLTG) (DLTG) (DLTU) (DLTU) (PIG) (PIG)
                 (PIU) (PIU) (SGU) (SGG) (DLTG) (DLTG) (PIG) (PIG)
                 (SGG) (SGG) (SGG) (SGG)
 The electronic state is 1-SGG.
 Alpha  occ. eigenvalues --  -47.58325  -3.33155  -2.02467  -2.02467  -2.01920
 Alpha  occ. eigenvalues --   -0.35833  -0.30452
 Alpha virt. eigenvalues --   -0.01553  -0.01553   0.00420   0.03882   0.04579
 Alpha virt. eigenvalues --    0.08449   0.08449   0.09750   0.09750   0.09938
 Alpha virt. eigenvalues --    0.09938   0.15422   0.20995   0.27691   0.30261
 Alpha virt. eigenvalues --    0.40973   0.40973   0.42508   0.42508   0.43199
 Alpha virt. eigenvalues --    0.43199   0.45795   0.46588   0.47590   0.47590
 Alpha virt. eigenvalues --    0.51875   0.51875   0.52405   0.52405   0.67494
 Alpha virt. eigenvalues --    0.77250   0.77250   0.79278   1.00424   1.00424
 Alpha virt. eigenvalues --    1.09817   1.17844   1.27133   1.29279   1.42740
 Alpha virt. eigenvalues --    1.42740   1.55188   1.57965   1.57965   1.59133
 Alpha virt. eigenvalues --    1.59134   1.69669   1.88674   1.88675   1.99522
 Alpha virt. eigenvalues --    1.99522   2.01942   2.01943   2.11494   2.11494
 Alpha virt. eigenvalues --    2.34732   2.41844   2.41844   2.46681   2.55089
 Alpha virt. eigenvalues --    2.60070   2.60070   2.82531   3.21939   4.96271
 Alpha virt. eigenvalues --    5.01822   5.48693   5.48696   5.49151   5.49153
 Alpha virt. eigenvalues --    5.49662   5.49662   5.50220   5.50220   5.51493
 Alpha virt. eigenvalues --    5.51493   5.55548   5.55548   5.71820   5.75359
 Alpha virt. eigenvalues --    7.15871   7.15871   7.17856   7.17856   7.21034
 Alpha virt. eigenvalues --    7.29200   7.40228   7.40229   7.48372   7.48372
 Alpha virt. eigenvalues --    7.66838   7.66838   7.75372   7.75372   8.01039
 Alpha virt. eigenvalues --    8.13988   8.16119   8.16120   8.25752   8.25752
 Alpha virt. eigenvalues --    8.82056   9.44753  34.75187 195.43267
          Condensed to atoms (all electrons):
               1          2          3
     1  Mg  10.610039   0.330110   0.330110
     2  H    0.330110   1.046283  -0.011522
     3  H    0.330110  -0.011522   1.046283
 Mulliken charges:
               1
     1  Mg   0.729741
     2  H   -0.364871
     3  H   -0.364871
 Sum of Mulliken charges =  -0.00000
 Mulliken charges with hydrogens summed into heavy atoms:
               1
     1  Mg  -0.000000
 Electronic spatial extent (au):  <R**2>=             53.4277
 Charge=             -0.0000 electrons
 Dipole moment (field-independent basis, Debye):
    X=             -0.0000    Y=              0.0000    Z=              0.0000  Tot=              0.0000
 Quadrupole moment (field-independent basis, Debye-Ang):
   XX=            -10.5950   YY=            -10.5950   ZZ=            -22.6827
   XY=              0.0000   XZ=              0.0000   YZ=             -0.0000
 Traceless Quadrupole moment (field-independent basis, Debye-Ang):
   XX=              4.0293   YY=              4.0293   ZZ=             -8.0585
   XY=              0.0000   XZ=              0.0000   YZ=             -0.0000
 Octapole moment (field-independent basis, Debye-Ang**2):
  XXX=             -0.0000  YYY=              0.0000  ZZZ=              0.0000  XYY=             -0.0000
  XXY=              0.0000  XXZ=              0.0000  XZZ=             -0.0000  YZZ=              0.0000
  YYZ=              0.0000  XYZ=             -0.0000
 Hexadecapole moment (field-independent basis, Debye-Ang**3):
 XXXX=            -16.4415 YYYY=            -16.4415 ZZZZ=           -117.8249 XXXY=              0.0000
 XXXZ=              0.0000 YYYX=              0.0000 YYYZ=             -0.0000 ZZZX=              0.0000
 ZZZY=             -0.0000 XXYY=             -5.4805 XXZZ=            -20.2586 YYZZ=            -20.2586
 XXYZ=             -0.0000 YYXZ=              0.0000 ZZXY=              0.0000
 N-N= 7.595396721842D+00 E-N=-4.961357849440D+02  KE= 2.004615878662D+02
 No NMR shielding tensors so no spin-rotation constants.
 Leave Link  601 at Sat Apr 17 05:35:02 2021, MaxMem=   104857600 cpu:              80.4 elap:               1.7
 (Enter /s/ls4/users/knvvv/bin/g16sse/l9999.exe)

 Test job not archived.
 1\1\GINC-N153\Stability\RM062X\def2QZVP\H2Mg1\KNVVV\17-Apr-2021\0\\#P 
 M062X/Def2QZVP Integral=UltraFineGrid SCF=NoSymm Stable=(RExt, Opt) IO
 p(1/33=1)\\Database calculations.\\0,1\Mg,0,0.,0.,0.\H,0,0.,0.,-1.7069
 341\H,0,0.,0.,1.7069341\\Version=ES64L-G16RevA.03\State=1-SGG\HF=-201.
 2151092\RMSD=8.983e-09\Dipole=0.,0.,0.\Quadrupole=2.9956556,2.9956556,
 -5.9913112,0.,0.,0.\PG=D*H [O(Mg1),C*(H1.H1)]\\@


 MATERIAL COPIED FROM ONE SCHOLARLY BOOK WITHOUT CREDIT COMPRISES PLAGIARISM.
 MATERIAL COPIED FROM TWO SCHOLARLY BOOKS COMPRISES AN ESSAY.
 MATERIAL COPIED FROM THREE SCHOLARLY BOOKS COMPRISES A DISSERTATION.
 MATERIAL COPIED FROM FOUR SCHOLARLY BOOKS COMPRISES A FIFTH SCHOLARLY BOOK.

                               -- C&EN, 25 FEB 1980
 Job cpu time:       0 days  1 hours 33 minutes 15.5 seconds.
 Elapsed time:       0 days  0 hours  1 minutes 58.8 seconds.
 File lengths (MBytes):  RWF=     70 Int=      0 D2E=      0 Chk=      3 Scr=      1
 Normal termination of Gaussian 16 at Sat Apr 17 05:35:02 2021.
