 Entering Gaussian System, Link 0=/s/ls4/groups/g0130/bin/g16/g16
 Input=M062X--def2-QZVP--ISOL24_i4p.gjf
 Output=M062X--def2-QZVP--ISOL24_i4p.log
 Initial command:
 /s/ls4/groups/g0130/bin/g16/l1.exe "/dev/shm/scratch_knvvv/Gau-1653.inp" -scrdir="/dev/shm/scratch_knvvv/"
 Entering Link 1 = /s/ls4/groups/g0130/bin/g16/l1.exe PID=      1654.
  
 Copyright (c) 1988,1990,1992,1993,1995,1998,2003,2009,2016,
            Gaussian, Inc.  All Rights Reserved.
  
 This is part of the Gaussian(R) 16 program.  It is based on
 the Gaussian(R) 09 system (copyright 2009, Gaussian, Inc.),
 the Gaussian(R) 03 system (copyright 2003, Gaussian, Inc.),
 the Gaussian(R) 98 system (copyright 1998, Gaussian, Inc.),
 the Gaussian(R) 94 system (copyright 1995, Gaussian, Inc.),
 the Gaussian 92(TM) system (copyright 1992, Gaussian, Inc.),
 the Gaussian 90(TM) system (copyright 1990, Gaussian, Inc.),
 the Gaussian 88(TM) system (copyright 1988, Gaussian, Inc.),
 the Gaussian 86(TM) system (copyright 1986, Carnegie Mellon
 University), and the Gaussian 82(TM) system (copyright 1983,
 Carnegie Mellon University). Gaussian is a federally registered
 trademark of Gaussian, Inc.
  
 This software contains proprietary and confidential information,
 including trade secrets, belonging to Gaussian, Inc.
  
 This software is provided under written license and may be
 used, copied, transmitted, or stored only in accord with that
 written license.
  
 The following legend is applicable only to US Government
 contracts under FAR:
  
                    RESTRICTED RIGHTS LEGEND
  
 Use, reproduction and disclosure by the US Government is
 subject to restrictions as set forth in subparagraphs (a)
 and (c) of the Commercial Computer Software - Restricted
 Rights clause in FAR 52.227-19.
  
 Gaussian, Inc.
 340 Quinnipiac St., Bldg. 40, Wallingford CT 06492
  
  
 ---------------------------------------------------------------
 Warning -- This program may not be used in any manner that
 competes with the business of Gaussian, Inc. or will provide
 assistance to any competitor of Gaussian, Inc.  The licensee
 of this program is prohibited from giving any competitor of
 Gaussian, Inc. access to this program.  By using this program,
 the user acknowledges that Gaussian, Inc. is engaged in the
 business of creating and licensing software in the field of
 computational chemistry and represents and warrants to the
 licensee that it is not a competitor of Gaussian, Inc. and that
 it will not use this program in any manner prohibited above.
 ---------------------------------------------------------------
  

 Cite this work as:
 Gaussian 16, Revision A.03,
 M. J. Frisch, G. W. Trucks, H. B. Schlegel, G. E. Scuseria, 
 M. A. Robb, J. R. Cheeseman, G. Scalmani, V. Barone, 
 G. A. Petersson, H. Nakatsuji, X. Li, M. Caricato, A. V. Marenich, 
 J. Bloino, B. G. Janesko, R. Gomperts, B. Mennucci, H. P. Hratchian, 
 J. V. Ortiz, A. F. Izmaylov, J. L. Sonnenberg, D. Williams-Young, 
 F. Ding, F. Lipparini, F. Egidi, J. Goings, B. Peng, A. Petrone, 
 T. Henderson, D. Ranasinghe, V. G. Zakrzewski, J. Gao, N. Rega, 
 G. Zheng, W. Liang, M. Hada, M. Ehara, K. Toyota, R. Fukuda, 
 J. Hasegawa, M. Ishida, T. Nakajima, Y. Honda, O. Kitao, H. Nakai, 
 T. Vreven, K. Throssell, J. A. Montgomery, Jr., J. E. Peralta, 
 F. Ogliaro, M. J. Bearpark, J. J. Heyd, E. N. Brothers, K. N. Kudin, 
 V. N. Staroverov, T. A. Keith, R. Kobayashi, J. Normand, 
 K. Raghavachari, A. P. Rendell, J. C. Burant, S. S. Iyengar, 
 J. Tomasi, M. Cossi, J. M. Millam, M. Klene, C. Adamo, R. Cammi, 
 J. W. Ochterski, R. L. Martin, K. Morokuma, O. Farkas, 
 J. B. Foresman, and D. J. Fox, Gaussian, Inc., Wallingford CT, 2016.
 
 ******************************************
 Gaussian 16:  ES64L-G16RevA.03 25-Dec-2016
                20-Apr-2021 
 ******************************************
 %nprocshared=48
 Will use up to   48 processors via shared memory.
 %mem=90GB
 ----------------------------------------------------------------------
 #P M062X/Def2QZVP Integral=UltraFineGrid SCF=NoSymm Stable=(RExt, Opt)
  IOp(1/33=1)
 ----------------------------------------------------------------------
 1/33=1,38=1,172=1/1;
 2/12=2,17=6,18=5,40=1/2;
 3/5=45,7=101,11=2,25=1,30=1,74=-55,75=-5/1,2,3;
 4/9=2/1;
 5/5=2,38=5/2;
 6/7=2,8=2,9=2,10=2,28=1/1;
 8/6=1,10=90,11=11/1;
 9/8=-3,42=1,46=1/14;
 5/5=2,8=3,17=40,38=5/8(-2);
 6/7=2,8=2,9=2,10=2,28=1/1;
 99/5=1,9=1/99;
 Leave Link    1 at Tue Apr 20 10:36:10 2021, MaxMem= 12079595520 cpu:               8.0 elap:               0.2
 (Enter /s/ls4/groups/g0130/bin/g16/l101.exe)
 ONIOM data not found on unit 2.
 ----------------------
 Database calculations.
 ----------------------
 TstMul:  ICh=     0
 TstMul:  Mul=     1
 TstMul:  ICh=     0
 TstMul:  Mul=     1
 Symbolic Z-matrix:
 Charge =  0 Multiplicity = 1
 C                     11.77012   1.41797  -0.3777 
 C                     13.25608   1.13451  -0.50252 
 C                     10.84194   0.2819   -0.19942 
 C                     9.49291   0.33849   0.4782 
 C                     8.47298  -0.5812   -0.23188 
 C                     7.10558  -0.56356   0.41592 
 C                     6.05179  -0.03756  -0.23059 
 C                     4.6286    0.05572   0.24448 
 C                     3.70912  -0.96074  -0.48804 
 C                     2.25818  -0.85932  -0.07106 
 C                     1.32592  -0.42485  -0.93575 
 C                    -0.15053  -0.26521  -0.70461 
 C                    -0.98249  -1.29431  -1.52075 
 C                    -2.45984  -1.08253  -1.34477 
 C                    -3.33812  -1.85493  -0.68253 
 C                    -4.78804  -1.43698  -0.56617 
 C                    -5.21572  -1.11107   0.89222 
 C                    -6.65799  -0.69641   0.96822 
 C                    -7.16021   0.52939   1.19523 
 C                    -8.65602   0.75851   1.17365 
 C                    -9.12231   1.63335  -0.02343 
 C                    -10.60929   1.85502  -0.01038 
 C                    -11.53589   1.27479  -0.79094 
 C                    -13.00322   1.59521  -0.628 
 C                     11.43782   2.81637   0.10574 
 C                     7.04796  -1.15798   1.80339 
 C                     1.98019  -1.25924   1.35909 
 C                    -11.23852   0.27228  -1.87946 
 H                     11.91434   3.55547  -0.55262 
 H                     13.42468   0.11483  -0.86748 
 H                     10.35968   2.99903   0.10374 
 H                     11.82449   2.96815   1.12322 
 H                     13.7172   1.8406   -1.20682 
 H                     13.75108   1.25101   0.47169 
 H                     11.29974  -0.71603  -0.17769 
 H                     7.62087  -0.54785   2.51785 
 H                     6.02708  -1.25496   2.18507 
 H                     7.50987  -2.15711   1.80333 
 H                     0.91175  -1.32848   1.58485 
 H                     2.44068  -2.23611   1.57149 
 H                     2.42888  -0.54102   2.0616 
 H                    -5.06366  -2.00724   1.51132 
 H                    -4.97528  -0.55249  -1.1891 
 H                    -2.84521  -0.1589   -1.78646 
 H                    -0.71688  -1.18333  -2.58388 
 H                    -0.41142  -0.36495   0.35521 
 H                     1.65973  -0.18475  -1.94945 
 H                     3.80031  -0.80357  -1.57148 
 H                     6.22574   0.34007  -1.24187 
 H                    -13.41996   2.00155  -1.5632 
 H                    -13.17246   2.32501   0.17323 
 H                    -13.57849   0.68445  -0.39817 
 H                    -11.79078  -0.66189  -1.69319 
 H                    -10.17537   0.02731  -1.96356 
 H                    -11.58507   0.64996  -2.8542 
 H                     9.61845   0.02508   1.52514 
 H                     4.55772  -0.10264   1.32618 
 O                     10.96983   0.9305   -1.48978 
 C                    -2.99224  -3.15542   0.00247 
 H                    -3.1263   -3.06892   1.09083 
 H                    -3.67227  -3.95303  -0.3341 
 H                    -1.96399  -3.47932  -0.18398 
 C                    -6.32968   1.76224   1.46013 
 H                    -6.45616   2.49643   0.65086 
 H                    -6.66706   2.25463   2.38517 
 H                    -5.2607    1.54892   1.55373 
 H                    -7.37569  -1.49948   0.77703 
 H                    -9.18353  -0.20315   1.12529 
 H                    -10.9657   2.54921   0.75567 
 H                    -8.61316   2.60634   0.03103 
 H                     8.39802  -0.26615  -1.28013 
 H                     4.23925   1.06571   0.04561 
 H                    -0.46233   0.74644  -1.00925 
 H                     8.86937  -1.61036  -0.22421 
 H                     4.08816  -1.97244  -0.27271 
 H                     9.10416   1.36268   0.4815 
 H                    -0.67442  -2.30308  -1.22344 
 H                    -5.43796  -2.24417  -0.94234 
 H                    -4.54632  -0.33602   1.28366 
 H                    -8.96943   1.25525   2.1064 
 H                    -8.79051   1.15438  -0.95235 
 
 RdStrC is calling ZToCFu for IStruc=1 NZ=    81.
 PrtBox:  NBox=    18 Levels=  4 BoxLen=    8.00 SMaxX=       51.65
          Shift=           25.659626            7.470150            5.393650
 Box      1 Number                   0 centers from      1 to      3:
 Box      2 Number                   2 centers from      4 to     11:
 Box      3 Number                   4 centers from     12 to     16:
 Box      4 Number                   6 centers from     17 to     22:
 Box      5 Number                   7 centers from     23 to     26:
 Box      6 Number                  32 centers from     27 to     37:
 Box      7 Number                  33 centers from     38 to     38:
 Box      8 Number                  36 centers from     39 to     46:
 Box      9 Number                  37 centers from     47 to     49:
 Box     10 Number                  38 centers from     50 to     50:
 Box     11 Number                 256 centers from     51 to     57:
 Box     12 Number                 257 centers from     58 to     60:
 Box     13 Number                 258 centers from     61 to     62:
 Box     14 Number                 260 centers from     63 to     66:
 Box     15 Number                 261 centers from     67 to     68:
 Box     16 Number                 262 centers from     69 to     75:
 Box     17 Number                 288 centers from     76 to     76:
 Box     18 Number                 290 centers from     77 to     81:
 After GenITR:
 ITRead=  0  0  0  0  0  0  0  0  0  0  0  0  0  0  0  0  0  0  0  0
 ITRead=  0  0  0  0  0  0  0  0  0  0  0  0  0  0  0  0  0  0  0  0
 ITRead=  0  0  0  0  0  0  0  0  0  0  0  0  0  0  0  0  0  0  0  0
 ITRead=  0  0  0  0  0  0  0  0  0  0  0  0  0  0  0  0  0  0  0  0
 ITRead=  0
 MicOpt= -1 -1 -1 -1 -1 -1 -1 -1 -1 -1 -1 -1 -1 -1 -1 -1 -1 -1 -1 -1
 MicOpt= -1 -1 -1 -1 -1 -1 -1 -1 -1 -1 -1 -1 -1 -1 -1 -1 -1 -1 -1 -1
 MicOpt= -1 -1 -1 -1 -1 -1 -1 -1 -1 -1 -1 -1 -1 -1 -1 -1 -1 -1 -1 -1
 MicOpt= -1 -1 -1 -1 -1 -1 -1 -1 -1 -1 -1 -1 -1 -1 -1 -1 -1 -1 -1 -1
 MicOpt= -1
 ITRead=  0  0  0  0  0  0  0  0  0  0  0  0  0  0  0  0  0  0  0  0
 ITRead=  0  0  0  0  0  0  0  0  0  0  0  0  0  0  0  0  0  0  0  0
 ITRead=  0  0  0  0  0  0  0  0  0  0  0  0  0  0  0  0  0  0  0  0
 ITRead=  0  0  0  0  0  0  0  0  0  0  0  0  0  0  0  0  0  0  0  0
 ITRead=  0
 MicOpt= -1 -1 -1 -1 -1 -1 -1 -1 -1 -1 -1 -1 -1 -1 -1 -1 -1 -1 -1 -1
 MicOpt= -1 -1 -1 -1 -1 -1 -1 -1 -1 -1 -1 -1 -1 -1 -1 -1 -1 -1 -1 -1
 MicOpt= -1 -1 -1 -1 -1 -1 -1 -1 -1 -1 -1 -1 -1 -1 -1 -1 -1 -1 -1 -1
 MicOpt= -1 -1 -1 -1 -1 -1 -1 -1 -1 -1 -1 -1 -1 -1 -1 -1 -1 -1 -1 -1
 MicOpt= -1
 NAtoms=     81 NQM=       81 NQMF=       0 NMMI=      0 NMMIF=      0
                NMic=       0 NMicF=      0.
                    Isotopes and Nuclear Properties:
 (Nuclear quadrupole moments (NQMom) in fm**2, nuclear magnetic moments (NMagM)
  in nuclear magnetons)

  Atom         1           2           3           4           5           6           7           8           9          10
 IAtWgt=          12          12          12          12          12          12          12          12          12          12
 AtmWgt=  12.0000000  12.0000000  12.0000000  12.0000000  12.0000000  12.0000000  12.0000000  12.0000000  12.0000000  12.0000000
 NucSpn=           0           0           0           0           0           0           0           0           0           0
 AtZEff=  -0.0000000  -0.0000000  -0.0000000  -0.0000000  -0.0000000  -0.0000000  -0.0000000  -0.0000000  -0.0000000  -0.0000000
 NQMom=    0.0000000   0.0000000   0.0000000   0.0000000   0.0000000   0.0000000   0.0000000   0.0000000   0.0000000   0.0000000
 NMagM=    0.0000000   0.0000000   0.0000000   0.0000000   0.0000000   0.0000000   0.0000000   0.0000000   0.0000000   0.0000000
 AtZNuc=   6.0000000   6.0000000   6.0000000   6.0000000   6.0000000   6.0000000   6.0000000   6.0000000   6.0000000   6.0000000

  Atom        11          12          13          14          15          16          17          18          19          20
 IAtWgt=          12          12          12          12          12          12          12          12          12          12
 AtmWgt=  12.0000000  12.0000000  12.0000000  12.0000000  12.0000000  12.0000000  12.0000000  12.0000000  12.0000000  12.0000000
 NucSpn=           0           0           0           0           0           0           0           0           0           0
 AtZEff=  -0.0000000  -0.0000000  -0.0000000  -0.0000000  -0.0000000  -0.0000000  -0.0000000  -0.0000000  -0.0000000  -0.0000000
 NQMom=    0.0000000   0.0000000   0.0000000   0.0000000   0.0000000   0.0000000   0.0000000   0.0000000   0.0000000   0.0000000
 NMagM=    0.0000000   0.0000000   0.0000000   0.0000000   0.0000000   0.0000000   0.0000000   0.0000000   0.0000000   0.0000000
 AtZNuc=   6.0000000   6.0000000   6.0000000   6.0000000   6.0000000   6.0000000   6.0000000   6.0000000   6.0000000   6.0000000

  Atom        21          22          23          24          25          26          27          28          29          30
 IAtWgt=          12          12          12          12          12          12          12          12           1           1
 AtmWgt=  12.0000000  12.0000000  12.0000000  12.0000000  12.0000000  12.0000000  12.0000000  12.0000000   1.0078250   1.0078250
 NucSpn=           0           0           0           0           0           0           0           0           1           1
 AtZEff=  -0.0000000  -0.0000000  -0.0000000  -0.0000000  -0.0000000  -0.0000000  -0.0000000  -0.0000000  -0.0000000  -0.0000000
 NQMom=    0.0000000   0.0000000   0.0000000   0.0000000   0.0000000   0.0000000   0.0000000   0.0000000   0.0000000   0.0000000
 NMagM=    0.0000000   0.0000000   0.0000000   0.0000000   0.0000000   0.0000000   0.0000000   0.0000000   2.7928460   2.7928460
 AtZNuc=   6.0000000   6.0000000   6.0000000   6.0000000   6.0000000   6.0000000   6.0000000   6.0000000   1.0000000   1.0000000

  Atom        31          32          33          34          35          36          37          38          39          40
 IAtWgt=           1           1           1           1           1           1           1           1           1           1
 AtmWgt=   1.0078250   1.0078250   1.0078250   1.0078250   1.0078250   1.0078250   1.0078250   1.0078250   1.0078250   1.0078250
 NucSpn=           1           1           1           1           1           1           1           1           1           1
 AtZEff=  -0.0000000  -0.0000000  -0.0000000  -0.0000000  -0.0000000  -0.0000000  -0.0000000  -0.0000000  -0.0000000  -0.0000000
 NQMom=    0.0000000   0.0000000   0.0000000   0.0000000   0.0000000   0.0000000   0.0000000   0.0000000   0.0000000   0.0000000
 NMagM=    2.7928460   2.7928460   2.7928460   2.7928460   2.7928460   2.7928460   2.7928460   2.7928460   2.7928460   2.7928460
 AtZNuc=   1.0000000   1.0000000   1.0000000   1.0000000   1.0000000   1.0000000   1.0000000   1.0000000   1.0000000   1.0000000

  Atom        41          42          43          44          45          46          47          48          49          50
 IAtWgt=           1           1           1           1           1           1           1           1           1           1
 AtmWgt=   1.0078250   1.0078250   1.0078250   1.0078250   1.0078250   1.0078250   1.0078250   1.0078250   1.0078250   1.0078250
 NucSpn=           1           1           1           1           1           1           1           1           1           1
 AtZEff=  -0.0000000  -0.0000000  -0.0000000  -0.0000000  -0.0000000  -0.0000000  -0.0000000  -0.0000000  -0.0000000  -0.0000000
 NQMom=    0.0000000   0.0000000   0.0000000   0.0000000   0.0000000   0.0000000   0.0000000   0.0000000   0.0000000   0.0000000
 NMagM=    2.7928460   2.7928460   2.7928460   2.7928460   2.7928460   2.7928460   2.7928460   2.7928460   2.7928460   2.7928460
 AtZNuc=   1.0000000   1.0000000   1.0000000   1.0000000   1.0000000   1.0000000   1.0000000   1.0000000   1.0000000   1.0000000

  Atom        51          52          53          54          55          56          57          58          59          60
 IAtWgt=           1           1           1           1           1           1           1          16          12           1
 AtmWgt=   1.0078250   1.0078250   1.0078250   1.0078250   1.0078250   1.0078250   1.0078250  15.9949146  12.0000000   1.0078250
 NucSpn=           1           1           1           1           1           1           1           0           0           1
 AtZEff=  -0.0000000  -0.0000000  -0.0000000  -0.0000000  -0.0000000  -0.0000000  -0.0000000  -0.0000000  -0.0000000  -0.0000000
 NQMom=    0.0000000   0.0000000   0.0000000   0.0000000   0.0000000   0.0000000   0.0000000   0.0000000   0.0000000   0.0000000
 NMagM=    2.7928460   2.7928460   2.7928460   2.7928460   2.7928460   2.7928460   2.7928460   0.0000000   0.0000000   2.7928460
 AtZNuc=   1.0000000   1.0000000   1.0000000   1.0000000   1.0000000   1.0000000   1.0000000   8.0000000   6.0000000   1.0000000

  Atom        61          62          63          64          65          66          67          68          69          70
 IAtWgt=           1           1          12           1           1           1           1           1           1           1
 AtmWgt=   1.0078250   1.0078250  12.0000000   1.0078250   1.0078250   1.0078250   1.0078250   1.0078250   1.0078250   1.0078250
 NucSpn=           1           1           0           1           1           1           1           1           1           1
 AtZEff=  -0.0000000  -0.0000000  -0.0000000  -0.0000000  -0.0000000  -0.0000000  -0.0000000  -0.0000000  -0.0000000  -0.0000000
 NQMom=    0.0000000   0.0000000   0.0000000   0.0000000   0.0000000   0.0000000   0.0000000   0.0000000   0.0000000   0.0000000
 NMagM=    2.7928460   2.7928460   0.0000000   2.7928460   2.7928460   2.7928460   2.7928460   2.7928460   2.7928460   2.7928460
 AtZNuc=   1.0000000   1.0000000   6.0000000   1.0000000   1.0000000   1.0000000   1.0000000   1.0000000   1.0000000   1.0000000

  Atom        71          72          73          74          75          76          77          78          79          80
 IAtWgt=           1           1           1           1           1           1           1           1           1           1
 AtmWgt=   1.0078250   1.0078250   1.0078250   1.0078250   1.0078250   1.0078250   1.0078250   1.0078250   1.0078250   1.0078250
 NucSpn=           1           1           1           1           1           1           1           1           1           1
 AtZEff=  -0.0000000  -0.0000000  -0.0000000  -0.0000000  -0.0000000  -0.0000000  -0.0000000  -0.0000000  -0.0000000  -0.0000000
 NQMom=    0.0000000   0.0000000   0.0000000   0.0000000   0.0000000   0.0000000   0.0000000   0.0000000   0.0000000   0.0000000
 NMagM=    2.7928460   2.7928460   2.7928460   2.7928460   2.7928460   2.7928460   2.7928460   2.7928460   2.7928460   2.7928460
 AtZNuc=   1.0000000   1.0000000   1.0000000   1.0000000   1.0000000   1.0000000   1.0000000   1.0000000   1.0000000   1.0000000

  Atom        81
 IAtWgt=           1
 AtmWgt=   1.0078250
 NucSpn=           1
 AtZEff=  -0.0000000
 NQMom=    0.0000000
 NMagM=    2.7928460
 AtZNuc=   1.0000000
 No MM parameters found.
 Leave Link  101 at Tue Apr 20 10:36:11 2021, MaxMem= 12079595520 cpu:              13.8 elap:               0.3
 (Enter /s/ls4/groups/g0130/bin/g16/l202.exe)
 Stoichiometry    C30H50O
 Framework group  C1[X(C30H50O)]
 Deg. of freedom   237
 Full point group                 C1      NOp   1
 Largest Abelian subgroup         C1      NOp   1
 Largest concise Abelian subgroup C1      NOp   1
                         Standard orientation:                         
 ---------------------------------------------------------------------
 Center     Atomic      Atomic             Coordinates (Angstroms)
 Number     Number       Type             X           Y           Z
 ---------------------------------------------------------------------
      1          6           0      -11.548598   -1.414457   -0.335648
      2          6           0      -13.034314   -1.131446   -0.464375
      3          6           0      -10.621036   -0.277936   -0.157008
      4          6           0       -9.273573   -0.333222    0.523842
      5          6           0       -8.252148    0.585519   -0.185309
      6          6           0       -6.886262    0.569141    0.465695
      7          6           0       -5.830875    0.042307   -0.177526
      8          6           0       -4.408784   -0.049966    0.300999
      9          6           0       -3.487777    0.965496   -0.430986
     10          6           0       -2.037791    0.864988   -0.010469
     11          6           0       -1.103444    0.429320   -0.872301
     12          6           0        0.372486    0.270298   -0.637469
     13          6           0        1.206169    1.298259   -1.453296
     14          6           0        2.683140    1.087015   -1.273545
     15          6           0        3.559748    1.860615   -0.610480
     16          6           0        5.009464    1.443101   -0.490090
     17          6           0        5.433804    1.119572    0.969803
     18          6           0        6.875962    0.705285    1.049819
     19          6           0        7.377866   -0.520070    1.279934
     20          6           0        8.873758   -0.748963    1.262194
     21          6           0        9.342979   -1.625612    0.067584
     22          6           0       10.829971   -1.846999    0.084447
     23          6           0       11.758288   -1.267837   -0.694867
     24          6           0       13.225286   -1.587739   -0.528009
     25          6           0      -11.217182   -2.812025    0.150771
     26          6           0       -6.831970    1.165762    1.852358
     27          6           0       -1.763197    1.267210    1.419691
     28          6           0       11.463274   -0.267102   -1.785661
     29          1           0      -11.692049   -3.552252   -0.507537
     30          1           0      -13.202240   -0.112377   -0.831339
     31          1           0      -10.139010   -2.994500    0.151567
     32          1           0      -11.606200   -2.962271    1.167580
     33          1           0      -13.493675   -1.838733   -1.168635
     34          1           0      -13.531562   -1.246504    0.508860
     35          1           0      -11.079054    0.719947   -0.137919
     36          1           0       -7.406438    0.556664    2.566436
     37          1           0       -5.811999    1.263522    2.236252
     38          1           0       -7.294055    2.164807    1.849645
     39          1           0       -0.695304    1.336998    1.647832
     40          1           0       -2.224348    2.244331    1.629481
     41          1           0       -2.213396    0.550020    2.122286
     42          1           0        5.280147    2.016682    1.587138
     43          1           0        5.198305    0.557665   -1.111185
     44          1           0        3.069696    0.162753   -1.712876
     45          1           0        0.943053    1.185548   -2.516866
     46          1           0        0.630898    0.371756    0.422791
     47          1           0       -1.434857    0.187557   -1.886393
     48          1           0       -3.576417    0.806594   -1.514384
     49          1           0       -6.002413   -0.336950   -1.188615
     50          1           0       13.644270   -1.995481   -1.461593
     51          1           0       13.392780   -2.316250    0.274762
     52          1           0       13.799861   -0.676525   -0.298277
     53          1           0       12.014942    0.667458   -1.599581
     54          1           0       10.400282   -0.022443   -1.872627
     55          1           0       11.812156   -0.646257   -2.758992
     56          1           0       -9.401602   -0.018184    1.569988
     57          1           0       -4.340448    0.110111    1.382605
     58          8           0      -10.745806   -0.928594   -1.446638
     59          6           0        3.212051    3.162118    0.071655
     60          1           0        3.343589    3.077363    1.160463
     61          1           0        3.892726    3.959321   -0.264585
     62          1           0        2.184180    3.485545   -0.117697
     63          6           0        6.546935   -1.752651    1.544838
     64          1           0        6.675418   -2.488092    0.737032
     65          1           0        6.882244   -2.243517    2.471441
     66          1           0        5.477696   -1.539367    1.635620
     67          1           0        7.593971    1.508174    0.859027
     68          1           0        9.401212    0.212715    1.213547
     69          1           0       11.184713   -2.539915    0.852419
     70          1           0        8.833875   -2.598604    0.122391
     71          1           0       -8.174700    0.268836   -1.232886
     72          1           0       -4.018794   -1.060209    0.104630
     73          1           0        0.685175   -0.741773   -0.939793
     74          1           0       -8.648736    1.614621   -0.180194
     75          1           0       -3.867487    1.977468   -0.218136
     76          1           0       -8.884657   -1.357336    0.529663
     77          1           0        0.897234    2.307439   -1.158293
     78          1           0        5.660119    2.249813   -0.866013
     79          1           0        4.763630    0.345014    1.360913
     80          1           0        9.185077   -1.244172    2.196451
     81          1           0        9.013264   -1.148165   -0.862863
 ---------------------------------------------------------------------
 Rotational constants (GHZ):           0.4203250           0.0183773           0.0181321
 Leave Link  202 at Tue Apr 20 10:36:11 2021, MaxMem= 12079595520 cpu:               6.0 elap:               0.2
 (Enter /s/ls4/groups/g0130/bin/g16/l301.exe)
 Standard basis: def2QZVP (5D, 7F)
 Ernie: Thresh=  0.10000D-02 Tol=  0.10000D-05 Strict=F.
 There are  3982 symmetry adapted cartesian basis functions of A   symmetry.
 There are  3267 symmetry adapted basis functions of A   symmetry.
  3267 basis functions,  4752 primitive gaussians,  3982 cartesian basis functions
   119 alpha electrons      119 beta electrons
       nuclear repulsion energy      2602.9661035833 Hartrees.
 IExCor= 4336 DFT=T Ex+Corr=M062X ExCW=0 ScaHFX=  0.540000
 ScaDFX=  1.000000  1.000000  1.000000  1.000000 ScalE2=  1.000000  1.000000
 IRadAn=      5 IRanWt=     -1 IRanGd=            0 ICorTp=0 IEmpDi=  4
 NAtoms=   81 NActive=   81 NUniq=   81 SFac= 1.00D+00 NAtFMM=   60 NAOKFM=T Big=T
 Integral buffers will be    131072 words long.
 Raffenetti 2 integral format.
 Two-electron integral symmetry is turned on.
 Leave Link  301 at Tue Apr 20 10:36:11 2021, MaxMem= 12079595520 cpu:               7.6 elap:               0.2
 (Enter /s/ls4/groups/g0130/bin/g16/l302.exe)
 NPDir=0 NMtPBC=     1 NCelOv=     1 NCel=       1 NClECP=     1 NCelD=      1
         NCelK=      1 NCelE2=     1 NClLst=     1 CellRange=     0.0.
 One-electron integrals computed using PRISM.
 One-electron integral symmetry used in STVInt
   1 Symmetry operations used in ECPInt.
 ECPInt:  NShTT=  527878 NPrTT= 1201984 LenC2=  249734 LenP2D=  417738.
 LDataN:  DoStor=T MaxTD1= 8 Len=  415
 Number of processors reduced to  32 by ecpmxn.
 NBasis=  3267 RedAO= T EigKep=  1.26D-05  NBF=  3267
 NBsUse=  3267 1.00D-06 EigRej= -1.00D+00 NBFU=  3267
 Precomputing XC quadrature grid using
 IXCGrd= 4 IRadAn=           5 IRanWt=          -1 IRanGd=           0 AccXCQ= 0.00D+00.
 Generated NRdTot=       0 NPtTot=           0 NUsed=           0 NTot=          32
 NSgBfM=  2656  2640  2650  2653  2656 MxSgAt=    81 MxSgA2=    81.
 Leave Link  302 at Tue Apr 20 10:36:57 2021, MaxMem= 12079595520 cpu:            2188.0 elap:              45.7
 (Enter /s/ls4/groups/g0130/bin/g16/l303.exe)
 DipDrv:  MaxL=1.
 Leave Link  303 at Tue Apr 20 10:39:21 2021, MaxMem= 12079595520 cpu:            6780.4 elap:             144.3
 (Enter /s/ls4/groups/g0130/bin/g16/l401.exe)
 SCF N**3 symmetry information disabled.
 ExpMin= 7.60D-02 ExpMax= 1.17D+05 ExpMxC= 1.13D+03 IAcc=3 IRadAn=         5 AccDes= 0.00D+00
 Harris functional with IExCor= 1009 and IRadAn=       5 diagonalized for initial guess.
 HarFok:  IExCor= 1009 AccDes= 0.00D+00 IRadAn=         5 IDoV= 1 UseB2=F ITyADJ=14
 ICtDFT=  3500011 ScaDFX=  1.000000  1.000000  1.000000  1.000000
 FoFCou: FMM=F IPFlag=           0 FMFlag=      100000 FMFlg1=        2001
         NFxFlg=           0 DoJE=T BraDBF=F KetDBF=T FulRan=T
         wScrn=  0.000000 ICntrl=       500 IOpCl=  0 I1Cent=   200000004 NGrid=           0
         NMat0=    1 NMatS0=      1 NMatT0=    0 NMatD0=    1 NMtDS0=    0 NMtDT0=    0
 Petite list used in FoFCou.
 Harris En= -1248.13843681944    
 JPrj=0 DoOrth=F DoCkMO=F.
 Leave Link  401 at Tue Apr 20 10:40:01 2021, MaxMem= 12079595520 cpu:            1905.0 elap:              39.8
 (Enter /s/ls4/groups/g0130/bin/g16/l502.exe)
 Integral symmetry usage will be decided dynamically.
 Closed shell SCF:
 Using DIIS extrapolation, IDIIS=  1040.
 NGot= 12079595520 LenX= 12047660867 LenY= 12031800561
 Requested convergence on RMS density matrix=1.00D-08 within 128 cycles.
 Requested convergence on MAX density matrix=1.00D-06.
 Requested convergence on             energy=1.00D-06.
 No special actions if energy rises.
 Fock matrices will be formed incrementally for  20 cycles.
 Integral accuracy reduced to 1.0D-05 until final iterations.

 Cycle   1  Pass 0  IDiag  1:
 FoFJK:  IHMeth= 1 ICntrl=       0 DoSepK=F KAlg= 0 I1Cent=           0 FoldK=F
 IRaf= 430000000 NMat=       1 IRICut=       1 DoRegI=T DoRafI=F ISym2E= 0 IDoP0=0 IntGTp=1.
 FoFCou: FMM=T IPFlag=           0 FMFlag=      100000 FMFlg1=        2001
         NFxFlg=           0 DoJE=F BraDBF=F KetDBF=F FulRan=T
         wScrn=  0.000000 ICntrl=         0 IOpCl=  0 I1Cent=           0 NGrid=           0
         NMat0=    1 NMatS0=      1 NMatT0=    0 NMatD0=    1 NMtDS0=    0 NMtDT0=    0
 Symmetry not used in FoFCou.
 FMM levels:  10  Number of levels for PrismC:   9
 E= -1247.24659677642    
 DIIS: error= 1.48D-02 at cycle   1 NSaved=   1.
 NSaved= 1 IEnMin= 1 EnMin= -1247.24659677642     IErMin= 1 ErrMin= 1.48D-02
 ErrMax= 1.48D-02  0.00D+00 EMaxC= 1.00D-01 BMatC= 1.72D+00 BMatP= 1.72D+00
 IDIUse=3 WtCom= 8.52D-01 WtEn= 1.48D-01
 Coeff-Com:  0.100D+01
 Coeff-En:   0.100D+01
 Coeff:      0.100D+01
 Gap=     0.322 Goal=   None    Shift=    0.000
 GapD=    0.322 DampG=1.000 DampE=0.500 DampFc=0.5000 IDamp=-1.
 Damping current iteration by 5.00D-01
 RMSDP=2.47D+01 MaxDP=4.30D+03              OVMax= 1.00D+00

 Problem detected with inexpensive integrals.
 Switching to full accuracy and repeating last cycle.
 Cycle   2  Pass 1  IDiag  1:
 E= -1247.24646318929     Delta-E=        0.000133587129 Rises=F Damp=F
 DIIS: error= 1.48D-02 at cycle   1 NSaved=   1.
 NSaved= 1 IEnMin= 1 EnMin= -1247.24646318929     IErMin= 1 ErrMin= 1.48D-02
 ErrMax= 1.48D-02  0.00D+00 EMaxC= 1.00D-01 BMatC= 1.72D+00 BMatP= 1.72D+00
 IDIUse=3 WtCom= 8.52D-01 WtEn= 1.48D-01
 Coeff-Com:  0.100D+01
 Coeff-En:   0.100D+01
 Coeff:      0.100D+01
 Gap=     0.322 Goal=   None    Shift=    0.000
 GapD=    0.322 DampG=1.000 DampE=0.500 DampFc=0.5000 IDamp=-1.
 Damping current iteration by 5.00D-01
 RMSDP=5.98D-04 MaxDP=1.03D-01 DE= 1.34D-04 OVMax= 1.54D-01

 Cycle   3  Pass 1  IDiag  1:
 RMSU=  2.94D-04    CP:  9.59D-01
 E= -1247.85651560708     Delta-E=       -0.610052417790 Rises=F Damp=T
 DIIS: error= 6.65D-03 at cycle   2 NSaved=   2.
 NSaved= 2 IEnMin= 2 EnMin= -1247.85651560708     IErMin= 2 ErrMin= 6.65D-03
 ErrMax= 6.65D-03  0.00D+00 EMaxC= 1.00D-01 BMatC= 1.95D-01 BMatP= 1.72D+00
 IDIUse=3 WtCom= 9.34D-01 WtEn= 6.65D-02
 Coeff-Com: -0.237D+00 0.124D+01
 Coeff-En:   0.000D+00 0.100D+01
 Coeff:     -0.222D+00 0.122D+01
 Gap=     0.331 Goal=   None    Shift=    0.000
 GapD=    0.331 DampG=1.000 DampE=1.000 DampFc=1.0000 IDamp=-1.
 RMSDP=3.70D-04 MaxDP=7.64D-02 DE=-6.10D-01 OVMax= 8.10D-02

 Cycle   4  Pass 1  IDiag  1:
 RMSU=  3.69D-04    CP:  9.44D-01  9.85D-01
 E= -1248.39509658070     Delta-E=       -0.538580973616 Rises=F Damp=F
 DIIS: error= 1.60D-03 at cycle   3 NSaved=   3.
 NSaved= 3 IEnMin= 3 EnMin= -1248.39509658070     IErMin= 3 ErrMin= 1.60D-03
 ErrMax= 1.60D-03  0.00D+00 EMaxC= 1.00D-01 BMatC= 1.78D-02 BMatP= 1.95D-01
 IDIUse=3 WtCom= 9.84D-01 WtEn= 1.60D-02
 Coeff-Com: -0.118D+00 0.286D+00 0.832D+00
 Coeff-En:   0.000D+00 0.000D+00 0.100D+01
 Coeff:     -0.117D+00 0.282D+00 0.835D+00
 Gap=     0.309 Goal=   None    Shift=    0.000
 RMSDP=4.73D-05 MaxDP=1.03D-02 DE=-5.39D-01 OVMax= 1.53D-02

 Cycle   5  Pass 1  IDiag  1:
 RMSU=  3.49D-05    CP:  9.35D-01  1.06D+00  9.46D-01
 E= -1248.41069426351     Delta-E=       -0.015597682812 Rises=F Damp=F
 DIIS: error= 6.60D-04 at cycle   4 NSaved=   4.
 NSaved= 4 IEnMin= 4 EnMin= -1248.41069426351     IErMin= 4 ErrMin= 6.60D-04
 ErrMax= 6.60D-04  0.00D+00 EMaxC= 1.00D-01 BMatC= 2.21D-03 BMatP= 1.78D-02
 IDIUse=3 WtCom= 9.93D-01 WtEn= 6.60D-03
 Coeff-Com: -0.460D-01 0.103D+00 0.380D+00 0.563D+00
 Coeff-En:   0.000D+00 0.000D+00 0.000D+00 0.100D+01
 Coeff:     -0.457D-01 0.103D+00 0.377D+00 0.566D+00
 Gap=     0.302 Goal=   None    Shift=    0.000
 RMSDP=1.50D-05 MaxDP=3.93D-03 DE=-1.56D-02 OVMax= 7.96D-03

 Cycle   6  Pass 1  IDiag  1:
 RMSU=  1.40D-05    CP:  9.33D-01  1.04D+00  9.39D-01  9.91D-01
 E= -1248.41220839303     Delta-E=       -0.001514129526 Rises=F Damp=F
 DIIS: error= 2.60D-04 at cycle   5 NSaved=   5.
 NSaved= 5 IEnMin= 5 EnMin= -1248.41220839303     IErMin= 5 ErrMin= 2.60D-04
 ErrMax= 2.60D-04  0.00D+00 EMaxC= 1.00D-01 BMatC= 2.65D-04 BMatP= 2.21D-03
 IDIUse=3 WtCom= 9.97D-01 WtEn= 2.60D-03
 Coeff-Com: -0.799D-02 0.178D-01 0.908D-01 0.285D+00 0.615D+00
 Coeff-En:   0.000D+00 0.000D+00 0.000D+00 0.775D-02 0.992D+00
 Coeff:     -0.797D-02 0.178D-01 0.906D-01 0.284D+00 0.616D+00
 Gap=     0.302 Goal=   None    Shift=    0.000
 RMSDP=5.41D-06 MaxDP=1.33D-03 DE=-1.51D-03 OVMax= 2.60D-03

 Cycle   7  Pass 1  IDiag  1:
 RMSU=  4.01D-06    CP:  9.33D-01  1.04D+00  9.35D-01  1.08D+00  1.01D+00
 E= -1248.41238968326     Delta-E=       -0.000181290223 Rises=F Damp=F
 DIIS: error= 4.05D-05 at cycle   6 NSaved=   6.
 NSaved= 6 IEnMin= 6 EnMin= -1248.41238968326     IErMin= 6 ErrMin= 4.05D-05
 ErrMax= 4.05D-05  0.00D+00 EMaxC= 1.00D-01 BMatC= 1.26D-05 BMatP= 2.65D-04
 IDIUse=1 WtCom= 1.00D+00 WtEn= 0.00D+00
 Coeff-Com:  0.183D-02-0.382D-02-0.245D-02 0.549D-01 0.220D+00 0.729D+00
 Coeff:      0.183D-02-0.382D-02-0.245D-02 0.549D-01 0.220D+00 0.729D+00
 Gap=     0.302 Goal=   None    Shift=    0.000
 RMSDP=1.65D-06 MaxDP=3.99D-04 DE=-1.81D-04 OVMax= 5.26D-04

 Cycle   8  Pass 1  IDiag  1:
 RMSU=  1.09D-06    CP:  9.33D-01  1.04D+00  9.34D-01  1.10D+00  1.07D+00
                    CP:  9.93D-01
 E= -1248.41239949887     Delta-E=       -0.000009815610 Rises=F Damp=F
 DIIS: error= 1.21D-05 at cycle   7 NSaved=   7.
 NSaved= 7 IEnMin= 7 EnMin= -1248.41239949887     IErMin= 7 ErrMin= 1.21D-05
 ErrMax= 1.21D-05  0.00D+00 EMaxC= 1.00D-01 BMatC= 1.34D-06 BMatP= 1.26D-05
 IDIUse=1 WtCom= 1.00D+00 WtEn= 0.00D+00
 Coeff-Com:  0.146D-02-0.319D-02-0.996D-02-0.882D-02 0.144D-01 0.272D+00
 Coeff-Com:  0.734D+00
 Coeff:      0.146D-02-0.319D-02-0.996D-02-0.882D-02 0.144D-01 0.272D+00
 Coeff:      0.734D+00
 Gap=     0.302 Goal=   None    Shift=    0.000
 RMSDP=4.33D-07 MaxDP=1.02D-04 DE=-9.82D-06 OVMax= 1.76D-04

 Cycle   9  Pass 1  IDiag  1:
 RMSU=  3.76D-07    CP:  9.33D-01  1.04D+00  9.35D-01  1.10D+00  1.07D+00
                    CP:  1.02D+00  1.03D+00
 E= -1248.41240066985     Delta-E=       -0.000001170987 Rises=F Damp=F
 DIIS: error= 3.44D-06 at cycle   8 NSaved=   8.
 NSaved= 8 IEnMin= 8 EnMin= -1248.41240066985     IErMin= 8 ErrMin= 3.44D-06
 ErrMax= 3.44D-06  0.00D+00 EMaxC= 1.00D-01 BMatC= 8.57D-08 BMatP= 1.34D-06
 IDIUse=1 WtCom= 1.00D+00 WtEn= 0.00D+00
 Coeff-Com:  0.282D-03-0.677D-03-0.260D-02-0.533D-02-0.765D-02 0.398D-01
 Coeff-Com:  0.231D+00 0.745D+00
 Coeff:      0.282D-03-0.677D-03-0.260D-02-0.533D-02-0.765D-02 0.398D-01
 Coeff:      0.231D+00 0.745D+00
 Gap=     0.302 Goal=   None    Shift=    0.000
 RMSDP=1.79D-07 MaxDP=4.14D-05 DE=-1.17D-06 OVMax= 7.01D-05

 Cycle  10  Pass 1  IDiag  1:
 RMSU=  1.18D-07    CP:  9.33D-01  1.04D+00  9.35D-01  1.10D+00  1.07D+00
                    CP:  1.02D+00  1.07D+00  1.15D+00
 E= -1248.41240073490     Delta-E=       -0.000000065045 Rises=F Damp=F
 DIIS: error= 1.45D-06 at cycle   9 NSaved=   9.
 NSaved= 9 IEnMin= 9 EnMin= -1248.41240073490     IErMin= 9 ErrMin= 1.45D-06
 ErrMax= 1.45D-06  0.00D+00 EMaxC= 1.00D-01 BMatC= 2.02D-08 BMatP= 8.57D-08
 IDIUse=1 WtCom= 1.00D+00 WtEn= 0.00D+00
 Coeff-Com: -0.568D-04 0.888D-04 0.383D-04-0.122D-02-0.479D-02-0.139D-01
 Coeff-Com:  0.165D-01 0.347D+00 0.656D+00
 Coeff:     -0.568D-04 0.888D-04 0.383D-04-0.122D-02-0.479D-02-0.139D-01
 Coeff:      0.165D-01 0.347D+00 0.656D+00
 Gap=     0.302 Goal=   None    Shift=    0.000
 RMSDP=5.91D-08 MaxDP=1.51D-05 DE=-6.50D-08 OVMax= 3.68D-05

 Cycle  11  Pass 1  IDiag  1:
 RMSU=  3.52D-08    CP:  9.33D-01  1.04D+00  9.35D-01  1.09D+00  1.06D+00
                    CP:  1.02D+00  1.08D+00  1.22D+00  1.06D+00
 E= -1248.41240075302     Delta-E=       -0.000000018126 Rises=F Damp=F
 DIIS: error= 4.60D-07 at cycle  10 NSaved=  10.
 NSaved=10 IEnMin=10 EnMin= -1248.41240075302     IErMin=10 ErrMin= 4.60D-07
 ErrMax= 4.60D-07  0.00D+00 EMaxC= 1.00D-01 BMatC= 2.00D-09 BMatP= 2.02D-08
 IDIUse=1 WtCom= 1.00D+00 WtEn= 0.00D+00
 Coeff-Com: -0.482D-04 0.967D-04 0.230D-03-0.635D-04-0.143D-02-0.101D-01
 Coeff-Com: -0.161D-01 0.725D-01 0.295D+00 0.660D+00
 Coeff:     -0.482D-04 0.967D-04 0.230D-03-0.635D-04-0.143D-02-0.101D-01
 Coeff:     -0.161D-01 0.725D-01 0.295D+00 0.660D+00
 Gap=     0.302 Goal=   None    Shift=    0.000
 RMSDP=1.49D-08 MaxDP=3.15D-06 DE=-1.81D-08 OVMax= 9.09D-06

 Cycle  12  Pass 1  IDiag  1:
 RMSU=  1.16D-08    CP:  9.33D-01  1.04D+00  9.35D-01  1.09D+00  1.06D+00
                    CP:  1.02D+00  1.09D+00  1.24D+00  1.11D+00  9.77D-01
 E= -1248.41240075498     Delta-E=       -0.000000001952 Rises=F Damp=F
 DIIS: error= 1.77D-07 at cycle  11 NSaved=  11.
 NSaved=11 IEnMin=11 EnMin= -1248.41240075498     IErMin=11 ErrMin= 1.77D-07
 ErrMax= 1.77D-07  0.00D+00 EMaxC= 1.00D-01 BMatC= 9.45D-11 BMatP= 2.00D-09
 IDIUse=1 WtCom= 1.00D+00 WtEn= 0.00D+00
 Coeff-Com: -0.132D-04 0.289D-04 0.682D-04 0.717D-05-0.344D-03-0.299D-02
 Coeff-Com: -0.648D-02 0.806D-02 0.752D-01 0.249D+00 0.677D+00
 Coeff:     -0.132D-04 0.289D-04 0.682D-04 0.717D-05-0.344D-03-0.299D-02
 Coeff:     -0.648D-02 0.806D-02 0.752D-01 0.249D+00 0.677D+00
 Gap=     0.302 Goal=   None    Shift=    0.000
 RMSDP=4.21D-09 MaxDP=1.21D-06 DE=-1.95D-09 OVMax= 1.98D-06

 Cycle  13  Pass 1  IDiag  1:
 RMSU=  3.09D-09    CP:  9.33D-01  1.04D+00  9.35D-01  1.09D+00  1.06D+00
                    CP:  1.02D+00  1.09D+00  1.24D+00  1.12D+00  1.01D+00
                    CP:  1.01D+00
 E= -1248.41240075498     Delta-E=       -0.000000000004 Rises=F Damp=F
 DIIS: error= 6.85D-08 at cycle  12 NSaved=  12.
 NSaved=12 IEnMin=12 EnMin= -1248.41240075498     IErMin=12 ErrMin= 6.85D-08
 ErrMax= 6.85D-08  0.00D+00 EMaxC= 1.00D-01 BMatC= 9.68D-12 BMatP= 9.45D-11
 IDIUse=1 WtCom= 1.00D+00 WtEn= 0.00D+00
 Coeff-Com: -0.792D-06 0.278D-05 0.398D-05-0.676D-05-0.526D-04-0.377D-03
 Coeff-Com: -0.102D-02-0.217D-02 0.567D-02 0.383D-01 0.265D+00 0.695D+00
 Coeff:     -0.792D-06 0.278D-05 0.398D-05-0.676D-05-0.526D-04-0.377D-03
 Coeff:     -0.102D-02-0.217D-02 0.567D-02 0.383D-01 0.265D+00 0.695D+00
 Gap=     0.302 Goal=   None    Shift=    0.000
 RMSDP=1.47D-09 MaxDP=3.29D-07 DE=-3.64D-12 OVMax= 6.14D-07

 SCF Done:  E(RM062X) =  -1248.41240075     A.U. after   13 cycles
            NFock= 13  Conv=0.15D-08     -V/T= 2.0055
 KE= 1.241622543162D+03 PE=-8.099264577938D+03 EE= 3.006263530437D+03
 Leave Link  502 at Tue Apr 20 13:01:42 2021, MaxMem= 12079595520 cpu:          407641.7 elap:            8500.3
 (Enter /s/ls4/groups/g0130/bin/g16/l601.exe)
 Copying SCF densities to generalized density rwf, IOpCl= 0 IROHF=0.

 **********************************************************************

            Population analysis using the SCF density.

 **********************************************************************

 Orbital symmetries:
       Occupied  (A) (A) (A) (A) (A) (A) (A) (A) (A) (A) (A) (A)
                 (A) (A) (A) (A) (A) (A) (A) (A) (A) (A) (A) (A)
                 (A) (A) (A) (A) (A) (A) (A) (A) (A) (A) (A) (A)
                 (A) (A) (A) (A) (A) (A) (A) (A) (A) (A) (A) (A)
                 (A) (A) (A) (A) (A) (A) (A) (A) (A) (A) (A) (A)
                 (A) (A) (A) (A) (A) (A) (A) (A) (A) (A) (A) (A)
                 (A) (A) (A) (A) (A) (A) (A) (A) (A) (A) (A) (A)
                 (A) (A) (A) (A) (A) (A) (A) (A) (A) (A) (A) (A)
                 (A) (A) (A) (A) (A) (A) (A) (A) (A) (A) (A) (A)
                 (A) (A) (A) (A) (A) (A) (A) (A) (A) (A) (A)
       Virtual   (A) (A) (A) (A) (A) (A) (A) (A) (A) (A) (A) (A)
                 (A) (A) (A) (A) (A) (A) (A) (A) (A) (A) (A) (A)
                 (A) (A) (A) (A) (A) (A) (A) (A) (A) (A) (A) (A)
                 (A) (A) (A) (A) (A) (A) (A) (A) (A) (A) (A) (A)
                 (A) (A) (A) (A) (A) (A) (A) (A) (A) (A) (A) (A)
                 (A) (A) (A) (A) (A) (A) (A) (A) (A) (A) (A) (A)
                 (A) (A) (A) (A) (A) (A) (A) (A) (A) (A) (A) (A)
                 (A) (A) (A) (A) (A) (A) (A) (A) (A) (A) (A) (A)
                 (A) (A) (A) (A) (A) (A) (A) (A) (A) (A) (A) (A)
                 (A) (A) (A) (A) (A) (A) (A) (A) (A) (A) (A) (A)
                 (A) (A) (A) (A) (A) (A) (A) (A) (A) (A) (A) (A)
                 (A) (A) (A) (A) (A) (A) (A) (A) (A) (A) (A) (A)
                 (A) (A) (A) (A) (A) (A) (A) (A) (A) (A) (A) (A)
                 (A) (A) (A) (A) (A) (A) (A) (A) (A) (A) (A) (A)
                 (A) (A) (A) (A) (A) (A) (A) (A) (A) (A) (A) (A)
                 (A) (A) (A) (A) (A) (A) (A) (A) (A) (A) (A) (A)
                 (A) (A) (A) (A) (A) (A) (A) (A) (A) (A) (A) (A)
                 (A) (A) (A) (A) (A) (A) (A) (A) (A) (A) (A) (A)
                 (A) (A) (A) (A) (A) (A) (A) (A) (A) (A) (A) (A)
                 (A) (A) (A) (A) (A) (A) (A) (A) (A) (A) (A) (A)
                 (A) (A) (A) (A) (A) (A) (A) (A) (A) (A) (A) (A)
                 (A) (A) (A) (A) (A) (A) (A) (A) (A) (A) (A) (A)
                 (A) (A) (A) (A) (A) (A) (A) (A) (A) (A) (A) (A)
                 (A) (A) (A) (A) (A) (A) (A) (A) (A) (A) (A) (A)
                 (A) (A) (A) (A) (A) (A) (A) (A) (A) (A) (A) (A)
                 (A) (A) (A) (A) (A) (A) (A) (A) (A) (A) (A) (A)
                 (A) (A) (A) (A) (A) (A) (A) (A) (A) (A) (A) (A)
                 (A) (A) (A) (A) (A) (A) (A) (A) (A) (A) (A) (A)
                 (A) (A) (A) (A) (A) (A) (A) (A) (A) (A) (A) (A)
                 (A) (A) (A) (A) (A) (A) (A) (A) (A) (A) (A) (A)
                 (A) (A) (A) (A) (A) (A) (A) (A) (A) (A) (A) (A)
                 (A) (A) (A) (A) (A) (A) (A) (A) (A) (A) (A) (A)
                 (A) (A) (A) (A) (A) (A) (A) (A) (A) (A) (A) (A)
                 (A) (A) (A) (A) (A) (A) (A) (A) (A) (A) (A) (A)
                 (A) (A) (A) (A) (A) (A) (A) (A) (A) (A) (A) (A)
                 (A) (A) (A) (A) (A) (A) (A) (A) (A) (A) (A) (A)
                 (A) (A) (A) (A) (A) (A) (A) (A) (A) (A) (A) (A)
                 (A) (A) (A) (A) (A) (A) (A) (A) (A) (A) (A) (A)
                 (A) (A) (A) (A) (A) (A) (A) (A) (A) (A) (A) (A)
                 (A) (A) (A) (A) (A) (A) (A) (A) (A) (A) (A) (A)
                 (A) (A) (A) (A) (A) (A) (A) (A) (A) (A) (A) (A)
                 (A) (A) (A) (A) (A) (A) (A) (A) (A) (A) (A) (A)
                 (A) (A) (A) (A) (A) (A) (A) (A) (A) (A) (A) (A)
                 (A) (A) (A) (A) (A) (A) (A) (A) (A) (A) (A) (A)
                 (A) (A) (A) (A) (A) (A) (A) (A) (A) (A) (A) (A)
                 (A) (A) (A) (A) (A) (A) (A) (A) (A) (A) (A) (A)
                 (A) (A) (A) (A) (A) (A) (A) (A) (A) (A) (A) (A)
                 (A) (A) (A) (A) (A) (A) (A) (A) (A) (A) (A) (A)
                 (A) (A) (A) (A) (A) (A) (A) (A) (A) (A) (A) (A)
                 (A) (A) (A) (A) (A) (A) (A) (A) (A) (A) (A) (A)
                 (A) (A) (A) (A) (A) (A) (A) (A) (A) (A) (A) (A)
                 (A) (A) (A) (A) (A) (A) (A) (A) (A) (A) (A) (A)
                 (A) (A) (A) (A) (A) (A) (A) (A) (A) (A) (A) (A)
                 (A) (A) (A) (A) (A) (A) (A) (A) (A) (A) (A) (A)
                 (A) (A) (A) (A) (A) (A) (A) (A) (A) (A) (A) (A)
                 (A) (A) (A) (A) (A) (A) (A) (A) (A) (A) (A) (A)
                 (A) (A) (A) (A) (A) (A) (A) (A) (A) (A) (A) (A)
                 (A) (A) (A) (A) (A) (A) (A) (A) (A) (A) (A) (A)
                 (A) (A) (A) (A) (A) (A) (A) (A) (A) (A) (A) (A)
                 (A) (A) (A) (A) (A) (A) (A) (A) (A) (A) (A) (A)
                 (A) (A) (A) (A) (A) (A) (A) (A) (A) (A) (A) (A)
                 (A) (A) (A) (A) (A) (A) (A) (A) (A) (A) (A) (A)
                 (A) (A) (A) (A) (A) (A) (A) (A) (A) (A) (A) (A)
                 (A) (A) (A) (A) (A) (A) (A) (A) (A) (A) (A) (A)
                 (A) (A) (A) (A) (A) (A) (A) (A) (A) (A) (A) (A)
                 (A) (A) (A) (A) (A) (A) (A) (A) (A) (A) (A) (A)
                 (A) (A) (A) (A) (A) (A) (A) (A) (A) (A) (A) (A)
                 (A) (A) (A) (A) (A) (A) (A) (A) (A) (A) (A) (A)
                 (A) (A) (A) (A) (A) (A) (A) (A) (A) (A) (A) (A)
                 (A) (A) (A) (A) (A) (A) (A) (A) (A) (A) (A) (A)
                 (A) (A) (A) (A) (A) (A) (A) (A) (A) (A) (A) (A)
                 (A) (A) (A) (A) (A) (A) (A) (A) (A) (A) (A) (A)
                 (A) (A) (A) (A) (A) (A) (A) (A) (A) (A) (A) (A)
                 (A) (A) (A) (A) (A) (A) (A) (A) (A) (A) (A) (A)
                 (A) (A) (A) (A) (A) (A) (A) (A) (A) (A) (A) (A)
                 (A) (A) (A) (A) (A) (A) (A) (A) (A) (A) (A) (A)
                 (A) (A) (A) (A) (A) (A) (A) (A) (A) (A) (A) (A)
                 (A) (A) (A) (A) (A) (A) (A) (A) (A) (A) (A) (A)
                 (A) (A) (A) (A) (A) (A) (A) (A) (A) (A) (A) (A)
                 (A) (A) (A) (A) (A) (A) (A) (A) (A) (A) (A) (A)
                 (A) (A) (A) (A) (A) (A) (A) (A) (A) (A) (A) (A)
                 (A) (A) (A) (A) (A) (A) (A) (A) (A) (A) (A) (A)
                 (A) (A) (A) (A) (A) (A) (A) (A) (A) (A) (A) (A)
                 (A) (A) (A) (A) (A) (A) (A) (A) (A) (A) (A) (A)
                 (A) (A) (A) (A) (A) (A) (A) (A) (A) (A) (A) (A)
                 (A) (A) (A) (A) (A) (A) (A) (A) (A) (A) (A) (A)
                 (A) (A) (A) (A) (A) (A) (A) (A) (A) (A) (A) (A)
                 (A) (A) (A) (A) (A) (A) (A) (A) (A) (A) (A) (A)
                 (A) (A) (A) (A) (A) (A) (A) (A) (A) (A) (A) (A)
                 (A) (A) (A) (A) (A) (A) (A) (A) (A) (A) (A) (A)
                 (A) (A) (A) (A) (A) (A) (A) (A) (A) (A) (A) (A)
                 (A) (A) (A) (A) (A) (A) (A) (A) (A) (A) (A) (A)
                 (A) (A) (A) (A) (A) (A) (A) (A) (A) (A) (A) (A)
                 (A) (A) (A) (A) (A) (A) (A) (A) (A) (A) (A) (A)
                 (A) (A) (A) (A) (A) (A) (A) (A) (A) (A) (A) (A)
                 (A) (A) (A) (A) (A) (A) (A) (A) (A) (A) (A) (A)
                 (A) (A) (A) (A) (A) (A) (A) (A) (A) (A) (A) (A)
                 (A) (A) (A) (A) (A) (A) (A) (A) (A) (A) (A) (A)
                 (A) (A) (A) (A) (A) (A) (A) (A) (A) (A) (A) (A)
                 (A) (A) (A) (A) (A) (A) (A) (A) (A) (A) (A) (A)
                 (A) (A) (A) (A) (A) (A) (A) (A) (A) (A) (A) (A)
                 (A) (A) (A) (A) (A) (A) (A) (A) (A) (A) (A) (A)
                 (A) (A) (A) (A) (A) (A) (A) (A) (A) (A) (A) (A)
                 (A) (A) (A) (A) (A) (A) (A) (A) (A) (A) (A) (A)
                 (A) (A) (A) (A) (A) (A) (A) (A) (A) (A) (A) (A)
                 (A) (A) (A) (A) (A) (A) (A) (A) (A) (A) (A) (A)
                 (A) (A) (A) (A) (A) (A) (A) (A) (A) (A) (A) (A)
                 (A) (A) (A) (A) (A) (A) (A) (A) (A) (A) (A) (A)
                 (A) (A) (A) (A) (A) (A) (A) (A) (A) (A) (A) (A)
                 (A) (A) (A) (A) (A) (A) (A) (A) (A) (A) (A) (A)
                 (A) (A) (A) (A) (A) (A) (A) (A) (A) (A) (A) (A)
                 (A) (A) (A) (A) (A) (A) (A) (A) (A) (A) (A) (A)
                 (A) (A) (A) (A) (A) (A) (A) (A) (A) (A) (A) (A)
                 (A) (A) (A) (A) (A) (A) (A) (A) (A) (A) (A) (A)
                 (A) (A) (A) (A) (A) (A) (A) (A) (A) (A) (A) (A)
                 (A) (A) (A) (A) (A) (A) (A) (A) (A) (A) (A) (A)
                 (A) (A) (A) (A) (A) (A) (A) (A) (A) (A) (A) (A)
                 (A) (A) (A) (A) (A) (A) (A) (A) (A) (A) (A) (A)
                 (A) (A) (A) (A) (A) (A) (A) (A) (A) (A) (A) (A)
                 (A) (A) (A) (A) (A) (A) (A) (A) (A) (A) (A) (A)
                 (A) (A) (A) (A) (A) (A) (A) (A) (A) (A) (A) (A)
                 (A) (A) (A) (A) (A) (A) (A) (A) (A) (A) (A) (A)
                 (A) (A) (A) (A) (A) (A) (A) (A) (A) (A) (A) (A)
                 (A) (A) (A) (A) (A) (A) (A) (A) (A) (A) (A) (A)
                 (A) (A) (A) (A) (A) (A) (A) (A) (A) (A) (A) (A)
                 (A) (A) (A) (A) (A) (A) (A) (A) (A) (A) (A) (A)
                 (A) (A) (A) (A) (A) (A) (A) (A) (A) (A) (A) (A)
                 (A) (A) (A) (A) (A) (A) (A) (A) (A) (A) (A) (A)
                 (A) (A) (A) (A) (A) (A) (A) (A) (A) (A) (A) (A)
                 (A) (A) (A) (A) (A) (A) (A) (A) (A) (A) (A) (A)
                 (A) (A) (A) (A) (A) (A) (A) (A) (A) (A) (A) (A)
                 (A) (A) (A) (A) (A) (A) (A) (A) (A) (A) (A) (A)
                 (A) (A) (A) (A) (A) (A) (A) (A) (A) (A) (A) (A)
                 (A) (A) (A) (A) (A) (A) (A) (A) (A) (A) (A) (A)
                 (A) (A) (A) (A) (A) (A) (A) (A) (A) (A) (A) (A)
                 (A) (A) (A) (A) (A) (A) (A) (A) (A) (A) (A) (A)
                 (A) (A) (A) (A) (A) (A) (A) (A) (A) (A) (A) (A)
                 (A) (A) (A) (A) (A) (A) (A) (A) (A) (A) (A) (A)
                 (A) (A) (A) (A) (A) (A) (A) (A) (A) (A) (A) (A)
                 (A) (A) (A) (A) (A) (A) (A) (A) (A) (A) (A) (A)
                 (A) (A) (A) (A) (A) (A) (A) (A) (A) (A) (A) (A)
                 (A) (A) (A) (A) (A) (A) (A) (A) (A) (A) (A) (A)
                 (A) (A) (A) (A) (A) (A) (A) (A) (A) (A) (A) (A)
                 (A) (A) (A) (A) (A) (A) (A) (A) (A) (A) (A) (A)
                 (A) (A) (A) (A) (A) (A) (A) (A) (A) (A) (A) (A)
                 (A) (A) (A) (A) (A) (A) (A) (A) (A) (A) (A) (A)
                 (A) (A) (A) (A) (A) (A) (A) (A) (A) (A) (A) (A)
                 (A) (A) (A) (A) (A) (A) (A) (A) (A) (A) (A) (A)
                 (A) (A) (A) (A) (A) (A) (A) (A) (A) (A) (A) (A)
                 (A) (A) (A) (A) (A) (A) (A) (A) (A) (A) (A) (A)
                 (A) (A) (A) (A) (A) (A) (A) (A) (A) (A) (A) (A)
                 (A) (A) (A) (A) (A) (A) (A) (A) (A) (A) (A) (A)
                 (A) (A) (A) (A) (A) (A) (A) (A) (A) (A) (A) (A)
                 (A) (A) (A) (A) (A) (A) (A) (A) (A) (A) (A) (A)
                 (A) (A) (A) (A) (A) (A) (A) (A) (A) (A) (A) (A)
                 (A) (A) (A) (A) (A) (A) (A) (A) (A) (A) (A) (A)
                 (A) (A) (A) (A) (A) (A) (A) (A) (A) (A) (A) (A)
                 (A) (A) (A) (A) (A) (A) (A) (A) (A) (A) (A) (A)
                 (A) (A) (A) (A) (A) (A) (A) (A) (A) (A) (A) (A)
                 (A) (A) (A) (A) (A) (A) (A) (A) (A) (A) (A) (A)
                 (A) (A) (A) (A) (A) (A) (A) (A) (A) (A) (A) (A)
                 (A) (A) (A) (A) (A) (A) (A) (A) (A) (A) (A) (A)
                 (A) (A) (A) (A) (A) (A) (A) (A) (A) (A) (A) (A)
                 (A) (A) (A) (A) (A) (A) (A) (A) (A) (A) (A) (A)
                 (A) (A) (A) (A) (A) (A) (A) (A) (A) (A) (A) (A)
                 (A) (A) (A) (A) (A) (A) (A) (A) (A) (A) (A) (A)
                 (A) (A) (A) (A) (A) (A) (A) (A) (A) (A) (A) (A)
                 (A) (A) (A) (A) (A) (A) (A) (A) (A) (A) (A) (A)
                 (A) (A) (A) (A) (A) (A) (A) (A) (A) (A) (A) (A)
                 (A) (A) (A) (A) (A) (A) (A) (A) (A) (A) (A) (A)
                 (A) (A) (A) (A) (A) (A) (A) (A) (A) (A) (A) (A)
                 (A) (A) (A) (A) (A) (A) (A) (A) (A) (A) (A) (A)
                 (A) (A) (A) (A) (A) (A) (A) (A) (A) (A) (A) (A)
                 (A) (A) (A) (A) (A) (A) (A) (A) (A) (A) (A) (A)
                 (A) (A) (A) (A) (A) (A) (A) (A) (A) (A) (A) (A)
                 (A) (A) (A) (A) (A) (A) (A) (A) (A) (A) (A) (A)
                 (A) (A) (A) (A) (A) (A) (A) (A) (A) (A) (A) (A)
                 (A) (A) (A) (A) (A) (A) (A) (A) (A) (A) (A) (A)
                 (A) (A) (A) (A) (A) (A) (A) (A) (A) (A) (A) (A)
                 (A) (A) (A) (A) (A) (A) (A) (A) (A) (A) (A) (A)
                 (A) (A) (A) (A) (A) (A) (A) (A) (A) (A) (A) (A)
                 (A) (A) (A) (A) (A) (A) (A) (A) (A) (A) (A) (A)
                 (A) (A) (A) (A) (A) (A) (A) (A) (A) (A) (A) (A)
                 (A) (A) (A) (A) (A) (A) (A) (A) (A) (A) (A) (A)
                 (A) (A) (A) (A) (A) (A) (A) (A) (A) (A) (A) (A)
                 (A) (A) (A) (A) (A) (A) (A) (A) (A) (A) (A) (A)
                 (A) (A) (A) (A) (A) (A) (A) (A) (A) (A) (A) (A)
                 (A) (A) (A) (A) (A) (A) (A) (A) (A) (A) (A) (A)
                 (A) (A) (A) (A) (A) (A) (A) (A) (A) (A) (A) (A)
                 (A) (A) (A) (A) (A) (A) (A) (A) (A) (A) (A) (A)
                 (A) (A) (A) (A) (A) (A) (A) (A) (A) (A) (A) (A)
                 (A) (A) (A) (A) (A) (A) (A) (A) (A) (A) (A) (A)
                 (A) (A) (A) (A) (A) (A) (A) (A) (A) (A) (A) (A)
                 (A) (A) (A) (A) (A) (A) (A) (A) (A) (A) (A) (A)
                 (A) (A) (A) (A) (A) (A) (A) (A) (A) (A) (A) (A)
                 (A) (A) (A) (A) (A) (A) (A) (A) (A) (A) (A) (A)
                 (A) (A) (A) (A) (A) (A) (A) (A) (A) (A) (A) (A)
                 (A) (A) (A) (A) (A) (A) (A) (A) (A) (A) (A) (A)
                 (A) (A) (A) (A) (A) (A) (A) (A) (A) (A) (A) (A)
                 (A) (A) (A) (A) (A) (A) (A) (A) (A) (A) (A) (A)
                 (A) (A) (A) (A) (A) (A) (A) (A) (A) (A) (A) (A)
                 (A) (A) (A) (A) (A) (A) (A) (A) (A) (A) (A) (A)
                 (A) (A) (A) (A) (A) (A) (A) (A) (A) (A) (A) (A)
                 (A) (A) (A) (A) (A) (A) (A) (A) (A) (A) (A) (A)
                 (A) (A) (A) (A) (A) (A) (A) (A) (A) (A) (A) (A)
                 (A) (A) (A) (A) (A) (A) (A) (A) (A) (A) (A) (A)
                 (A) (A) (A) (A) (A) (A) (A) (A) (A) (A) (A) (A)
                 (A) (A) (A) (A) (A) (A) (A) (A) (A) (A) (A) (A)
                 (A) (A) (A) (A) (A) (A) (A) (A) (A) (A) (A) (A)
                 (A) (A) (A) (A) (A) (A) (A) (A) (A) (A) (A) (A)
                 (A) (A) (A) (A) (A) (A) (A) (A) (A) (A) (A) (A)
                 (A) (A) (A) (A) (A) (A) (A) (A) (A) (A) (A) (A)
                 (A) (A) (A) (A) (A) (A) (A) (A) (A) (A) (A) (A)
                 (A) (A) (A) (A) (A) (A) (A) (A) (A) (A) (A) (A)
                 (A) (A) (A) (A) (A) (A) (A) (A) (A) (A) (A) (A)
                 (A) (A) (A) (A) (A) (A) (A) (A) (A) (A) (A) (A)
                 (A) (A) (A) (A) (A) (A) (A) (A) (A) (A) (A) (A)
                 (A) (A) (A) (A) (A) (A) (A) (A) (A) (A) (A) (A)
                 (A) (A) (A) (A) (A) (A) (A) (A) (A) (A) (A) (A)
                 (A) (A) (A) (A) (A) (A) (A) (A) (A) (A) (A) (A)
                 (A) (A) (A) (A) (A) (A) (A) (A) (A) (A) (A) (A)
                 (A) (A) (A) (A) (A) (A) (A) (A) (A) (A) (A) (A)
                 (A) (A) (A) (A) (A) (A) (A) (A) (A) (A) (A) (A)
                 (A) (A) (A) (A) (A) (A) (A) (A) (A) (A) (A) (A)
                 (A) (A) (A) (A) (A) (A) (A) (A) (A) (A) (A) (A)
                 (A) (A) (A) (A) (A) (A) (A) (A) (A) (A) (A) (A)
                 (A) (A) (A) (A) (A) (A) (A) (A) (A) (A) (A) (A)
                 (A) (A) (A) (A) (A) (A) (A) (A) (A) (A) (A) (A)
                 (A) (A) (A) (A) (A) (A) (A) (A) (A) (A) (A) (A)
                 (A) (A) (A) (A) (A) (A) (A) (A) (A) (A) (A) (A)
                 (A) (A) (A) (A) (A) (A) (A) (A) (A) (A) (A) (A)
                 (A) (A) (A) (A) (A) (A) (A) (A) (A) (A) (A) (A)
                 (A) (A) (A) (A) (A) (A) (A) (A) (A) (A) (A) (A)
                 (A) (A) (A) (A) (A) (A) (A) (A) (A) (A) (A) (A)
                 (A) (A) (A) (A) (A) (A) (A) (A) (A) (A) (A) (A)
                 (A) (A) (A) (A) (A) (A) (A) (A) (A) (A) (A) (A)
                 (A) (A) (A) (A) (A) (A) (A) (A) (A) (A) (A) (A)
                 (A) (A) (A) (A) (A) (A) (A) (A) (A) (A) (A) (A)
                 (A) (A) (A) (A) (A) (A) (A) (A) (A) (A) (A) (A)
                 (A) (A) (A) (A) (A) (A) (A) (A) (A) (A) (A) (A)
                 (A) (A) (A) (A) (A) (A) (A) (A) (A) (A) (A) (A)
                 (A) (A) (A) (A) (A) (A) (A) (A) (A) (A) (A) (A)
                 (A) (A) (A) (A) (A) (A) (A) (A) (A) (A) (A) (A)
                 (A) (A) (A) (A) (A) (A) (A) (A) (A) (A) (A) (A)
                 (A) (A) (A) (A) (A) (A) (A) (A) (A) (A) (A) (A)
                 (A) (A) (A) (A) (A) (A) (A) (A) (A) (A) (A) (A)
                 (A) (A) (A) (A) (A) (A) (A) (A) (A) (A) (A) (A)
                 (A) (A) (A) (A) (A) (A) (A) (A) (A) (A) (A) (A)
                 (A) (A) (A) (A) (A) (A) (A) (A) (A) (A) (A) (A)
                 (A) (A) (A) (A) (A) (A) (A) (A) (A) (A) (A) (A)
                 (A) (A) (A) (A) (A) (A) (A) (A) (A) (A) (A) (A)
                 (A) (A) (A) (A) (A) (A) (A) (A) (A) (A) (A) (A)
                 (A) (A) (A) (A) (A) (A) (A) (A) (A) (A) (A) (A)
                 (A) (A) (A) (A) (A) (A) (A) (A) (A) (A) (A) (A)
                 (A) (A) (A) (A) (A) (A) (A) (A) (A) (A) (A) (A)
                 (A) (A) (A) (A) (A) (A) (A) (A) (A) (A) (A) (A)
                 (A) (A) (A) (A) (A) (A) (A) (A) (A) (A) (A) (A)
                 (A) (A) (A) (A) (A) (A) (A) (A) (A) (A) (A) (A)
                 (A) (A) (A) (A) (A) (A) (A) (A) (A) (A) (A) (A)
                 (A) (A) (A) (A) (A) (A) (A) (A) (A) (A) (A) (A)
                 (A) (A) (A) (A) (A) (A) (A) (A) (A) (A) (A) (A)
                 (A) (A) (A) (A) (A) (A) (A) (A) (A) (A) (A) (A)
                 (A) (A) (A) (A)
 The electronic state is 1-A.
 Alpha  occ. eigenvalues --  -19.62977 -10.60241 -10.59214 -10.54586 -10.54570
 Alpha  occ. eigenvalues --  -10.54432 -10.54427 -10.54403 -10.54388 -10.53903
 Alpha  occ. eigenvalues --  -10.53808 -10.53780 -10.53775 -10.53751 -10.53727
 Alpha  occ. eigenvalues --  -10.53727 -10.53722 -10.53719 -10.53685 -10.53663
 Alpha  occ. eigenvalues --  -10.53594 -10.53373 -10.53305 -10.53265 -10.53264
 Alpha  occ. eigenvalues --  -10.53191 -10.53137 -10.53089 -10.53083 -10.53066
 Alpha  occ. eigenvalues --  -10.52976  -1.17634  -0.93044  -0.92771  -0.92035
 Alpha  occ. eigenvalues --   -0.91328  -0.90337  -0.87908  -0.86711  -0.86301
 Alpha  occ. eigenvalues --   -0.84956  -0.82991  -0.82054  -0.79046  -0.78944
 Alpha  occ. eigenvalues --   -0.77985  -0.77592  -0.77466  -0.76519  -0.75900
 Alpha  occ. eigenvalues --   -0.73881  -0.71448  -0.69718  -0.68147  -0.67015
 Alpha  occ. eigenvalues --   -0.66253  -0.63557  -0.59649  -0.59373  -0.59020
 Alpha  occ. eigenvalues --   -0.58618  -0.58418  -0.56656  -0.55285  -0.55033
 Alpha  occ. eigenvalues --   -0.54788  -0.53770  -0.53194  -0.52720  -0.52020
 Alpha  occ. eigenvalues --   -0.51451  -0.51056  -0.50350  -0.49975  -0.49721
 Alpha  occ. eigenvalues --   -0.49344  -0.49187  -0.48384  -0.47968  -0.47809
 Alpha  occ. eigenvalues --   -0.47732  -0.47417  -0.46862  -0.46397  -0.45809
 Alpha  occ. eigenvalues --   -0.45701  -0.45015  -0.44603  -0.44533  -0.43602
 Alpha  occ. eigenvalues --   -0.43521  -0.43320  -0.43286  -0.43137  -0.42901
 Alpha  occ. eigenvalues --   -0.42864  -0.42771  -0.42381  -0.42119  -0.41894
 Alpha  occ. eigenvalues --   -0.41391  -0.41094  -0.40737  -0.39702  -0.39576
 Alpha  occ. eigenvalues --   -0.39234  -0.38986  -0.38484  -0.38448  -0.37944
 Alpha  occ. eigenvalues --   -0.37139  -0.36383  -0.34468  -0.33845  -0.30394
 Alpha  occ. eigenvalues --   -0.29803  -0.28876  -0.28145  -0.27319
 Alpha virt. eigenvalues --    0.02919   0.03464   0.03688   0.04018   0.04166
 Alpha virt. eigenvalues --    0.04355   0.04545   0.04628   0.04948   0.05070
 Alpha virt. eigenvalues --    0.05271   0.05728   0.05971   0.06054   0.06292
 Alpha virt. eigenvalues --    0.06627   0.07076   0.07299   0.07531   0.07975
 Alpha virt. eigenvalues --    0.08047   0.08181   0.08553   0.08658   0.08765
 Alpha virt. eigenvalues --    0.08931   0.09231   0.09286   0.09390   0.09753
 Alpha virt. eigenvalues --    0.10010   0.10045   0.10325   0.10518   0.10721
 Alpha virt. eigenvalues --    0.11024   0.11304   0.11611   0.11863   0.12046
 Alpha virt. eigenvalues --    0.12427   0.12637   0.12725   0.13108   0.13485
 Alpha virt. eigenvalues --    0.13545   0.13567   0.13810   0.14121   0.14210
 Alpha virt. eigenvalues --    0.14235   0.14417   0.14521   0.14715   0.14950
 Alpha virt. eigenvalues --    0.15242   0.15506   0.15682   0.15739   0.15942
 Alpha virt. eigenvalues --    0.16096   0.16255   0.16353   0.16684   0.16829
 Alpha virt. eigenvalues --    0.16893   0.17397   0.17555   0.17784   0.17915
 Alpha virt. eigenvalues --    0.18301   0.18804   0.18905   0.19036   0.19209
 Alpha virt. eigenvalues --    0.19312   0.19560   0.20062   0.20200   0.20523
 Alpha virt. eigenvalues --    0.20981   0.20989   0.21409   0.21789   0.22519
 Alpha virt. eigenvalues --    0.22624   0.23014   0.23209   0.23562   0.23811
 Alpha virt. eigenvalues --    0.24203   0.24422   0.24650   0.25176   0.25219
 Alpha virt. eigenvalues --    0.25352   0.25620   0.25912   0.25992   0.26335
 Alpha virt. eigenvalues --    0.26603   0.26681   0.26934   0.27014   0.27154
 Alpha virt. eigenvalues --    0.27429   0.27555   0.27686   0.27911   0.28030
 Alpha virt. eigenvalues --    0.28170   0.28288   0.28447   0.28734   0.28820
 Alpha virt. eigenvalues --    0.29127   0.29299   0.29408   0.29660   0.29774
 Alpha virt. eigenvalues --    0.29995   0.30123   0.30303   0.30446   0.30500
 Alpha virt. eigenvalues --    0.30663   0.30802   0.31076   0.31241   0.31438
 Alpha virt. eigenvalues --    0.31532   0.31677   0.31849   0.32050   0.32260
 Alpha virt. eigenvalues --    0.32477   0.32511   0.32639   0.32826   0.33090
 Alpha virt. eigenvalues --    0.33206   0.33458   0.33488   0.33601   0.33960
 Alpha virt. eigenvalues --    0.34007   0.34166   0.34203   0.34528   0.34588
 Alpha virt. eigenvalues --    0.34818   0.34847   0.35046   0.35154   0.35380
 Alpha virt. eigenvalues --    0.35425   0.35556   0.35657   0.35736   0.36025
 Alpha virt. eigenvalues --    0.36077   0.36388   0.36555   0.36789   0.36807
 Alpha virt. eigenvalues --    0.36865   0.37008   0.37269   0.37444   0.37541
 Alpha virt. eigenvalues --    0.37649   0.37886   0.38096   0.38176   0.38313
 Alpha virt. eigenvalues --    0.38348   0.38573   0.38848   0.38920   0.39221
 Alpha virt. eigenvalues --    0.39408   0.39727   0.39956   0.40033   0.40384
 Alpha virt. eigenvalues --    0.40771   0.40867   0.41252   0.41457   0.41643
 Alpha virt. eigenvalues --    0.41740   0.41892   0.42306   0.42458   0.42750
 Alpha virt. eigenvalues --    0.42788   0.43149   0.43356   0.43772   0.43930
 Alpha virt. eigenvalues --    0.44126   0.44363   0.44984   0.45169   0.45235
 Alpha virt. eigenvalues --    0.45662   0.45884   0.45941   0.46552   0.46754
 Alpha virt. eigenvalues --    0.47331   0.47522   0.47679   0.47912   0.48183
 Alpha virt. eigenvalues --    0.48785   0.49125   0.49242   0.49601   0.50040
 Alpha virt. eigenvalues --    0.50068   0.50364   0.50645   0.50764   0.51008
 Alpha virt. eigenvalues --    0.51188   0.51694   0.51740   0.52223   0.52301
 Alpha virt. eigenvalues --    0.52759   0.53093   0.53427   0.53635   0.53757
 Alpha virt. eigenvalues --    0.54223   0.54355   0.54443   0.54698   0.54908
 Alpha virt. eigenvalues --    0.55490   0.55553   0.55894   0.56183   0.56257
 Alpha virt. eigenvalues --    0.56656   0.56799   0.56986   0.57212   0.57670
 Alpha virt. eigenvalues --    0.57755   0.58003   0.58187   0.58352   0.58904
 Alpha virt. eigenvalues --    0.59291   0.59601   0.59879   0.60049   0.60151
 Alpha virt. eigenvalues --    0.60397   0.60696   0.60866   0.60926   0.61430
 Alpha virt. eigenvalues --    0.61455   0.61761   0.61965   0.62265   0.62692
 Alpha virt. eigenvalues --    0.62913   0.63162   0.63281   0.63534   0.63715
 Alpha virt. eigenvalues --    0.64033   0.64233   0.64369   0.64693   0.64736
 Alpha virt. eigenvalues --    0.65039   0.65237   0.65593   0.65985   0.66257
 Alpha virt. eigenvalues --    0.66613   0.66742   0.66940   0.67214   0.67260
 Alpha virt. eigenvalues --    0.67495   0.67813   0.67932   0.68226   0.68438
 Alpha virt. eigenvalues --    0.68605   0.68919   0.69258   0.69297   0.69512
 Alpha virt. eigenvalues --    0.69675   0.69896   0.70271   0.70413   0.70902
 Alpha virt. eigenvalues --    0.71002   0.71191   0.71489   0.71679   0.71884
 Alpha virt. eigenvalues --    0.72411   0.72820   0.73163   0.73355   0.73858
 Alpha virt. eigenvalues --    0.74318   0.74391   0.74755   0.75147   0.75358
 Alpha virt. eigenvalues --    0.75765   0.75895   0.76432   0.76521   0.76616
 Alpha virt. eigenvalues --    0.76843   0.77062   0.77333   0.77586   0.78223
 Alpha virt. eigenvalues --    0.78378   0.78812   0.79087   0.79228   0.79376
 Alpha virt. eigenvalues --    0.79701   0.80063   0.80190   0.80456   0.80779
 Alpha virt. eigenvalues --    0.80874   0.81051   0.81215   0.81522   0.81591
 Alpha virt. eigenvalues --    0.81928   0.81988   0.82303   0.82369   0.82584
 Alpha virt. eigenvalues --    0.82829   0.82935   0.83304   0.83333   0.83413
 Alpha virt. eigenvalues --    0.83635   0.83677   0.83850   0.84008   0.84190
 Alpha virt. eigenvalues --    0.84410   0.84546   0.84661   0.84837   0.85028
 Alpha virt. eigenvalues --    0.85272   0.85495   0.85638   0.85817   0.85985
 Alpha virt. eigenvalues --    0.86132   0.86269   0.86434   0.86552   0.86619
 Alpha virt. eigenvalues --    0.86784   0.86850   0.87206   0.87265   0.87540
 Alpha virt. eigenvalues --    0.87599   0.87858   0.88074   0.88158   0.88417
 Alpha virt. eigenvalues --    0.88425   0.88550   0.88624   0.88892   0.89004
 Alpha virt. eigenvalues --    0.89364   0.89692   0.89991   0.90170   0.90248
 Alpha virt. eigenvalues --    0.90321   0.90591   0.90747   0.90831   0.91080
 Alpha virt. eigenvalues --    0.91219   0.91693   0.91873   0.92214   0.92409
 Alpha virt. eigenvalues --    0.92608   0.92848   0.93113   0.93367   0.93573
 Alpha virt. eigenvalues --    0.93696   0.93869   0.94051   0.94314   0.94633
 Alpha virt. eigenvalues --    0.94729   0.94804   0.95173   0.95721   0.95803
 Alpha virt. eigenvalues --    0.96327   0.96400   0.96485   0.96734   0.96944
 Alpha virt. eigenvalues --    0.97033   0.97114   0.97451   0.97485   0.97966
 Alpha virt. eigenvalues --    0.98174   0.98411   0.98479   0.98735   0.98889
 Alpha virt. eigenvalues --    0.98992   0.99315   0.99475   0.99863   0.99948
 Alpha virt. eigenvalues --    1.00007   1.00354   1.00519   1.00669   1.01052
 Alpha virt. eigenvalues --    1.01301   1.01486   1.01682   1.01862   1.02159
 Alpha virt. eigenvalues --    1.02240   1.02595   1.02788   1.02907   1.03287
 Alpha virt. eigenvalues --    1.03567   1.03764   1.03963   1.04203   1.04325
 Alpha virt. eigenvalues --    1.04528   1.04699   1.04721   1.05011   1.05267
 Alpha virt. eigenvalues --    1.05528   1.05610   1.06045   1.06167   1.06400
 Alpha virt. eigenvalues --    1.06803   1.07113   1.07306   1.07461   1.07655
 Alpha virt. eigenvalues --    1.07983   1.08338   1.08481   1.08623   1.08866
 Alpha virt. eigenvalues --    1.09125   1.09149   1.09436   1.09484   1.09841
 Alpha virt. eigenvalues --    1.10077   1.10344   1.10540   1.10694   1.10786
 Alpha virt. eigenvalues --    1.10888   1.11113   1.11612   1.11695   1.11914
 Alpha virt. eigenvalues --    1.12100   1.12263   1.12750   1.13089   1.13239
 Alpha virt. eigenvalues --    1.13278   1.13645   1.13759   1.13939   1.14080
 Alpha virt. eigenvalues --    1.14304   1.14554   1.14775   1.15098   1.15204
 Alpha virt. eigenvalues --    1.15274   1.15674   1.15963   1.16099   1.16889
 Alpha virt. eigenvalues --    1.17202   1.17428   1.17796   1.18103   1.18370
 Alpha virt. eigenvalues --    1.18727   1.18922   1.19075   1.19497   1.19842
 Alpha virt. eigenvalues --    1.19977   1.20587   1.20804   1.21208   1.21736
 Alpha virt. eigenvalues --    1.21925   1.22120   1.22410   1.22734   1.22890
 Alpha virt. eigenvalues --    1.23080   1.23558   1.23805   1.24032   1.24582
 Alpha virt. eigenvalues --    1.25256   1.25444   1.25859   1.26059   1.26295
 Alpha virt. eigenvalues --    1.26724   1.26896   1.27281   1.27436   1.27988
 Alpha virt. eigenvalues --    1.28093   1.28379   1.28523   1.28695   1.29079
 Alpha virt. eigenvalues --    1.29222   1.29520   1.29973   1.30191   1.30286
 Alpha virt. eigenvalues --    1.30388   1.30746   1.31505   1.31866   1.31945
 Alpha virt. eigenvalues --    1.32190   1.32400   1.32486   1.32762   1.32846
 Alpha virt. eigenvalues --    1.33571   1.33686   1.33971   1.34266   1.34473
 Alpha virt. eigenvalues --    1.35235   1.35289   1.35729   1.35874   1.36062
 Alpha virt. eigenvalues --    1.36219   1.36649   1.36800   1.37323   1.37800
 Alpha virt. eigenvalues --    1.37887   1.38316   1.38767   1.39009   1.39290
 Alpha virt. eigenvalues --    1.39316   1.39704   1.39722   1.40106   1.40581
 Alpha virt. eigenvalues --    1.40788   1.41085   1.41544   1.41758   1.41994
 Alpha virt. eigenvalues --    1.42229   1.42656   1.42808   1.42912   1.43506
 Alpha virt. eigenvalues --    1.43656   1.43920   1.44125   1.44673   1.44963
 Alpha virt. eigenvalues --    1.45178   1.45331   1.45559   1.45798   1.46209
 Alpha virt. eigenvalues --    1.46485   1.46821   1.47163   1.47366   1.47568
 Alpha virt. eigenvalues --    1.47821   1.48303   1.48491   1.48955   1.49061
 Alpha virt. eigenvalues --    1.49481   1.49709   1.50034   1.50269   1.50731
 Alpha virt. eigenvalues --    1.50866   1.51192   1.51670   1.51747   1.51891
 Alpha virt. eigenvalues --    1.52137   1.52294   1.52515   1.52762   1.52909
 Alpha virt. eigenvalues --    1.53369   1.53703   1.54513   1.54855   1.55052
 Alpha virt. eigenvalues --    1.55387   1.55520   1.55884   1.56378   1.56999
 Alpha virt. eigenvalues --    1.57278   1.57465   1.58037   1.58168   1.58473
 Alpha virt. eigenvalues --    1.58560   1.59182   1.59371   1.59705   1.60117
 Alpha virt. eigenvalues --    1.60391   1.60848   1.61129   1.61277   1.61934
 Alpha virt. eigenvalues --    1.62127   1.62493   1.62599   1.63409   1.63521
 Alpha virt. eigenvalues --    1.64181   1.64494   1.64631   1.64911   1.65311
 Alpha virt. eigenvalues --    1.65843   1.66017   1.66225   1.66826   1.67276
 Alpha virt. eigenvalues --    1.67764   1.68224   1.68719   1.69186   1.69362
 Alpha virt. eigenvalues --    1.69758   1.70281   1.70383   1.71183   1.71695
 Alpha virt. eigenvalues --    1.71974   1.72502   1.72926   1.73041   1.75004
 Alpha virt. eigenvalues --    1.75688   1.75884   1.76246   1.77075   1.77919
 Alpha virt. eigenvalues --    1.78333   1.78824   1.79526   1.80066   1.80351
 Alpha virt. eigenvalues --    1.80760   1.80937   1.81517   1.81718   1.81770
 Alpha virt. eigenvalues --    1.81884   1.82947   1.83105   1.83477   1.83864
 Alpha virt. eigenvalues --    1.84169   1.84477   1.84647   1.84829   1.85106
 Alpha virt. eigenvalues --    1.85658   1.85938   1.86135   1.86318   1.86579
 Alpha virt. eigenvalues --    1.87212   1.87247   1.87407   1.88079   1.88715
 Alpha virt. eigenvalues --    1.88814   1.89292   1.89393   1.89948   1.90089
 Alpha virt. eigenvalues --    1.90256   1.90380   1.90631   1.90792   1.91390
 Alpha virt. eigenvalues --    1.91740   1.91964   1.92157   1.92574   1.92841
 Alpha virt. eigenvalues --    1.93085   1.93368   1.93833   1.94023   1.94096
 Alpha virt. eigenvalues --    1.94214   1.94350   1.94679   1.95280   1.95337
 Alpha virt. eigenvalues --    1.95746   1.96008   1.96264   1.96546   1.96648
 Alpha virt. eigenvalues --    1.96844   1.96954   1.97357   1.97651   1.97855
 Alpha virt. eigenvalues --    1.98005   1.98508   1.98682   1.98779   1.99073
 Alpha virt. eigenvalues --    1.99185   1.99618   1.99642   1.99833   2.00200
 Alpha virt. eigenvalues --    2.00351   2.00516   2.00587   2.00654   2.01010
 Alpha virt. eigenvalues --    2.01189   2.01598   2.01808   2.01830   2.02227
 Alpha virt. eigenvalues --    2.02467   2.02994   2.03141   2.03510   2.03751
 Alpha virt. eigenvalues --    2.04000   2.04172   2.04374   2.04557   2.04713
 Alpha virt. eigenvalues --    2.04810   2.05151   2.05333   2.05542   2.05755
 Alpha virt. eigenvalues --    2.05945   2.06156   2.06289   2.06598   2.06633
 Alpha virt. eigenvalues --    2.06785   2.07377   2.07428   2.07672   2.07866
 Alpha virt. eigenvalues --    2.07972   2.08155   2.08223   2.08656   2.09014
 Alpha virt. eigenvalues --    2.09264   2.09308   2.09595   2.09851   2.10136
 Alpha virt. eigenvalues --    2.10278   2.10390   2.10688   2.10975   2.11133
 Alpha virt. eigenvalues --    2.11288   2.11347   2.11459   2.11921   2.12244
 Alpha virt. eigenvalues --    2.12344   2.12544   2.12713   2.12895   2.12960
 Alpha virt. eigenvalues --    2.13203   2.13532   2.13633   2.13798   2.14203
 Alpha virt. eigenvalues --    2.14515   2.14777   2.14841   2.15171   2.15414
 Alpha virt. eigenvalues --    2.15455   2.15743   2.16039   2.16270   2.16352
 Alpha virt. eigenvalues --    2.16719   2.17133   2.17224   2.17378   2.17685
 Alpha virt. eigenvalues --    2.17886   2.17949   2.18100   2.18267   2.18453
 Alpha virt. eigenvalues --    2.18636   2.18845   2.18885   2.19087   2.19419
 Alpha virt. eigenvalues --    2.19485   2.19682   2.19917   2.20099   2.20216
 Alpha virt. eigenvalues --    2.20480   2.20728   2.20785   2.20908   2.21028
 Alpha virt. eigenvalues --    2.21618   2.21828   2.22036   2.22356   2.22491
 Alpha virt. eigenvalues --    2.22581   2.22872   2.23031   2.23408   2.23521
 Alpha virt. eigenvalues --    2.24013   2.24277   2.24291   2.24565   2.24783
 Alpha virt. eigenvalues --    2.24815   2.25255   2.25402   2.25727   2.26069
 Alpha virt. eigenvalues --    2.26419   2.26711   2.26814   2.26910   2.27175
 Alpha virt. eigenvalues --    2.27481   2.27731   2.27845   2.28035   2.28248
 Alpha virt. eigenvalues --    2.28604   2.28779   2.28989   2.29203   2.29304
 Alpha virt. eigenvalues --    2.29637   2.29890   2.30139   2.30230   2.30361
 Alpha virt. eigenvalues --    2.30452   2.30971   2.31071   2.31186   2.31445
 Alpha virt. eigenvalues --    2.31713   2.32127   2.32544   2.32628   2.33048
 Alpha virt. eigenvalues --    2.33171   2.33377   2.33745   2.33971   2.34223
 Alpha virt. eigenvalues --    2.34425   2.34450   2.34978   2.35193   2.35396
 Alpha virt. eigenvalues --    2.35539   2.35749   2.36073   2.36312   2.36907
 Alpha virt. eigenvalues --    2.37191   2.37320   2.37474   2.37553   2.38096
 Alpha virt. eigenvalues --    2.38262   2.38547   2.39052   2.39167   2.39212
 Alpha virt. eigenvalues --    2.39676   2.39782   2.40307   2.40783   2.40865
 Alpha virt. eigenvalues --    2.41253   2.41539   2.41636   2.42059   2.42229
 Alpha virt. eigenvalues --    2.42536   2.42837   2.43176   2.43302   2.43514
 Alpha virt. eigenvalues --    2.43948   2.44212   2.44469   2.44838   2.45343
 Alpha virt. eigenvalues --    2.45511   2.45653   2.46065   2.46497   2.46730
 Alpha virt. eigenvalues --    2.46932   2.47020   2.47309   2.47443   2.47667
 Alpha virt. eigenvalues --    2.47951   2.48173   2.48446   2.48724   2.48869
 Alpha virt. eigenvalues --    2.49741   2.50005   2.50212   2.50573   2.50755
 Alpha virt. eigenvalues --    2.51162   2.51491   2.51678   2.52003   2.52228
 Alpha virt. eigenvalues --    2.52379   2.52455   2.52587   2.52947   2.52968
 Alpha virt. eigenvalues --    2.53236   2.53716   2.54405   2.54701   2.55033
 Alpha virt. eigenvalues --    2.55171   2.55411   2.55501   2.55783   2.56094
 Alpha virt. eigenvalues --    2.56225   2.56537   2.56799   2.56944   2.57173
 Alpha virt. eigenvalues --    2.57444   2.57637   2.58199   2.58265   2.58631
 Alpha virt. eigenvalues --    2.58766   2.59309   2.59322   2.59588   2.59923
 Alpha virt. eigenvalues --    2.60015   2.60405   2.60603   2.60843   2.61077
 Alpha virt. eigenvalues --    2.61400   2.61774   2.61807   2.61971   2.62234
 Alpha virt. eigenvalues --    2.62402   2.62750   2.63039   2.63202   2.63425
 Alpha virt. eigenvalues --    2.63631   2.64102   2.64214   2.64483   2.64535
 Alpha virt. eigenvalues --    2.64771   2.65162   2.65480   2.65626   2.65682
 Alpha virt. eigenvalues --    2.65903   2.66069   2.66454   2.66569   2.66703
 Alpha virt. eigenvalues --    2.66853   2.67215   2.67562   2.67939   2.68179
 Alpha virt. eigenvalues --    2.68389   2.68595   2.68851   2.69106   2.69301
 Alpha virt. eigenvalues --    2.69455   2.69673   2.70134   2.70613   2.70882
 Alpha virt. eigenvalues --    2.70960   2.71120   2.71473   2.71786   2.72161
 Alpha virt. eigenvalues --    2.72327   2.72753   2.73194   2.73345   2.73365
 Alpha virt. eigenvalues --    2.73705   2.73902   2.74044   2.74286   2.74671
 Alpha virt. eigenvalues --    2.74811   2.74950   2.75302   2.75419   2.75654
 Alpha virt. eigenvalues --    2.75998   2.76063   2.76431   2.76884   2.76922
 Alpha virt. eigenvalues --    2.77220   2.77607   2.77765   2.77851   2.78142
 Alpha virt. eigenvalues --    2.78495   2.78649   2.79037   2.79239   2.79446
 Alpha virt. eigenvalues --    2.79518   2.79704   2.79969   2.80115   2.80523
 Alpha virt. eigenvalues --    2.80885   2.81135   2.81367   2.81574   2.82033
 Alpha virt. eigenvalues --    2.82130   2.82343   2.82592   2.82832   2.83077
 Alpha virt. eigenvalues --    2.83258   2.83460   2.83636   2.83799   2.84199
 Alpha virt. eigenvalues --    2.84602   2.84737   2.84963   2.85314   2.85694
 Alpha virt. eigenvalues --    2.85855   2.86279   2.86358   2.86717   2.86792
 Alpha virt. eigenvalues --    2.87053   2.87431   2.87478   2.87943   2.88015
 Alpha virt. eigenvalues --    2.88405   2.88495   2.88590   2.89036   2.89246
 Alpha virt. eigenvalues --    2.89510   2.89847   2.89951   2.90109   2.90436
 Alpha virt. eigenvalues --    2.90695   2.90843   2.91116   2.91187   2.91412
 Alpha virt. eigenvalues --    2.91664   2.91866   2.92006   2.92350   2.92561
 Alpha virt. eigenvalues --    2.92898   2.93101   2.93143   2.93406   2.93556
 Alpha virt. eigenvalues --    2.93711   2.93843   2.94238   2.94550   2.94995
 Alpha virt. eigenvalues --    2.95108   2.95348   2.95572   2.95672   2.95970
 Alpha virt. eigenvalues --    2.96031   2.96197   2.96540   2.96798   2.96978
[...]
 Alpha virt. eigenvalues --    7.65763   7.66046   7.66264   7.66713   7.66957
 Alpha virt. eigenvalues --    7.67045   7.67183   7.67903   7.68024   7.68318
 Alpha virt. eigenvalues --    7.68542   7.68687   7.69286   7.69779   7.70012
 Alpha virt. eigenvalues --    7.70259   7.70457   7.70802   7.70972   7.71079
 Alpha virt. eigenvalues --    7.71457   7.71828   7.72248   7.72456   7.72605
 Alpha virt. eigenvalues --    7.73137   7.73286   7.73885   7.74142   7.74317
 Alpha virt. eigenvalues --    7.74650   7.74942   7.75255   7.75320   7.75428
 Alpha virt. eigenvalues --    7.75639   7.75894   7.76017   7.76261   7.76270
 Alpha virt. eigenvalues --    7.76639   7.77215   7.77525   7.77810   7.78040
 Alpha virt. eigenvalues --    7.78342   7.79043   7.79214   7.79427   7.79666
 Alpha virt. eigenvalues --    7.80364   7.80470   7.80650   7.80952   7.81331
 Alpha virt. eigenvalues --    7.81965   7.82356   7.82688   7.82806   7.83404
 Alpha virt. eigenvalues --    7.83550   7.83941   7.84018   7.84312   7.84474
 Alpha virt. eigenvalues --    7.84859   7.85071   7.85255   7.85538   7.85808
 Alpha virt. eigenvalues --    7.86011   7.86197   7.86380   7.86534   7.87401
 Alpha virt. eigenvalues --    7.87580   7.87760   7.87893   7.88155   7.88516
 Alpha virt. eigenvalues --    7.88646   7.88841   7.89435   7.89725   7.89849
 Alpha virt. eigenvalues --    7.89994   7.90196   7.90406   7.90553   7.90759
 Alpha virt. eigenvalues --    7.91286   7.91562   7.91612   7.92469   7.92696
 Alpha virt. eigenvalues --    7.93013   7.93322   7.93924   7.94064   7.94140
 Alpha virt. eigenvalues --    7.94674   7.94750   7.95220   7.95523   7.95727
 Alpha virt. eigenvalues --    7.95913   7.96043   7.96368   7.96518   7.97268
 Alpha virt. eigenvalues --    7.97384   7.97796   7.98357   7.98934   7.99071
 Alpha virt. eigenvalues --    7.99473   7.99510   8.00243   8.00279   8.00499
 Alpha virt. eigenvalues --    8.00726   8.01205   8.01667   8.02369   8.03490
 Alpha virt. eigenvalues --    8.03923   8.04700   8.05025   8.05522   8.05955
 Alpha virt. eigenvalues --    8.06360   8.07100   8.08539   8.09379   8.09812
 Alpha virt. eigenvalues --    8.10658   8.11127   8.11455   8.11678   8.11986
 Alpha virt. eigenvalues --    8.12275   8.12317   8.13125   8.13240   8.13520
 Alpha virt. eigenvalues --    8.13841   8.14319   8.14553   8.14661   8.15310
 Alpha virt. eigenvalues --    8.15576   8.15863   8.16185   8.16215   8.16459
 Alpha virt. eigenvalues --    8.16529   8.16726   8.16824   8.17296   8.17569
 Alpha virt. eigenvalues --    8.17737   8.17896   8.18011   8.18220   8.18377
 Alpha virt. eigenvalues --    8.18502   8.18683   8.18731   8.19320   8.19835
 Alpha virt. eigenvalues --    8.20249   8.20347   8.20534   8.20687   8.21136
 Alpha virt. eigenvalues --    8.21381   8.21602   8.21728   8.21850   8.22260
 Alpha virt. eigenvalues --    8.22398   8.22569   8.22871   8.23343   8.23507
 Alpha virt. eigenvalues --    8.23646   8.23724   8.24051   8.24498   8.24606
 Alpha virt. eigenvalues --    8.25195   8.25352   8.25782   8.26020   8.26446
 Alpha virt. eigenvalues --    8.26941   8.27039   8.27208   8.27355   8.27794
 Alpha virt. eigenvalues --    8.27972   8.28017   8.28430   8.28746   8.28835
 Alpha virt. eigenvalues --    8.29202   8.29578   8.29779   8.29830   8.29898
 Alpha virt. eigenvalues --    8.30112   8.30824   8.31064   8.31422   8.31796
 Alpha virt. eigenvalues --    8.32000   8.32232   8.32673   8.32866   8.33132
 Alpha virt. eigenvalues --    8.33327   8.33650   8.34237   8.34260   8.34860
 Alpha virt. eigenvalues --    8.35353   8.35591   8.35815   8.35982   8.36059
 Alpha virt. eigenvalues --    8.36279   8.36440   8.36678   8.36847   8.37050
 Alpha virt. eigenvalues --    8.37463   8.37973   8.38092   8.38304   8.38901
 Alpha virt. eigenvalues --    8.39045   8.39395   8.40206   8.40547   8.40843
 Alpha virt. eigenvalues --    8.41259   8.41316   8.41714   8.41875   8.42105
 Alpha virt. eigenvalues --    8.42191   8.42379   8.42892   8.43125   8.43336
 Alpha virt. eigenvalues --    8.44026   8.44365   8.44795   8.45129   8.45334
 Alpha virt. eigenvalues --    8.45880   8.45970   8.46183   8.46653   8.47002
 Alpha virt. eigenvalues --    8.47386   8.47473   8.47749   8.48079   8.48267
 Alpha virt. eigenvalues --    8.48505   8.48833   8.49716   8.50321   8.50402
 Alpha virt. eigenvalues --    8.50748   8.51080   8.51208   8.52150   8.52765
 Alpha virt. eigenvalues --    8.53203   8.53273   8.53461   8.53646   8.54478
 Alpha virt. eigenvalues --    8.54869   8.55321   8.55666   8.55924   8.56436
 Alpha virt. eigenvalues --    8.56834   8.57363   8.57487   8.57594   8.57744
 Alpha virt. eigenvalues --    8.58399   8.59301   8.59494   8.59853   8.60515
 Alpha virt. eigenvalues --    8.60724   8.60857   8.61211   8.61678   8.61779
 Alpha virt. eigenvalues --    8.62349   8.63079   8.63668   8.63780   8.64391
 Alpha virt. eigenvalues --    8.64633   8.64885   8.65614   8.66073   8.66599
 Alpha virt. eigenvalues --    8.66994   8.67387   8.67542   8.68018   8.68413
 Alpha virt. eigenvalues --    8.68705   8.68906   8.69143   8.69942   8.70079
 Alpha virt. eigenvalues --    8.70224   8.70426   8.70702   8.71030   8.71713
 Alpha virt. eigenvalues --    8.72165   8.72473   8.72531   8.73037   8.73532
 Alpha virt. eigenvalues --    8.73834   8.74202   8.74519   8.74659   8.74839
 Alpha virt. eigenvalues --    8.75190   8.75453   8.75572   8.75616   8.76395
 Alpha virt. eigenvalues --    8.76554   8.76841   8.77504   8.78419   8.78687
 Alpha virt. eigenvalues --    8.78845   8.79351   8.79497   8.80045   8.80341
 Alpha virt. eigenvalues --    8.80990   8.81092   8.81411   8.82178   8.82328
 Alpha virt. eigenvalues --    8.82561   8.83023   8.84100   8.84656   8.85228
 Alpha virt. eigenvalues --    8.85273   8.85604   8.86148   8.86370   8.86513
 Alpha virt. eigenvalues --    8.86967   8.87325   8.87492   8.88363   8.89099
 Alpha virt. eigenvalues --    8.89476   8.89895   8.91524   8.93206   8.94048
 Alpha virt. eigenvalues --    8.94317   8.94826   8.95080   8.95514   8.96310
 Alpha virt. eigenvalues --    8.97574   8.97648   8.99015   9.00307   9.00522
 Alpha virt. eigenvalues --    9.01378   9.01478   9.02802   9.04068   9.05406
 Alpha virt. eigenvalues --    9.06646   9.07074   9.08069   9.08367   9.08924
 Alpha virt. eigenvalues --    9.09158   9.09697   9.10709   9.11944   9.13294
 Alpha virt. eigenvalues --    9.13450   9.13814   9.15446   9.15893   9.16805
 Alpha virt. eigenvalues --    9.17469   9.17888   9.18478   9.18626   9.19506
 Alpha virt. eigenvalues --    9.19970   9.20817   9.21437   9.21867   9.22479
 Alpha virt. eigenvalues --    9.23319   9.23765   9.26532   9.26750   9.28284
 Alpha virt. eigenvalues --    9.30311   9.31428   9.32645   9.33082   9.36102
 Alpha virt. eigenvalues --    9.36786   9.37109   9.37656   9.37917   9.38615
 Alpha virt. eigenvalues --    9.39247   9.40105   9.41324   9.42443   9.43214
 Alpha virt. eigenvalues --    9.43757   9.45018   9.48163   9.48929   9.49469
 Alpha virt. eigenvalues --    9.49954   9.50655   9.51256   9.51277   9.52574
 Alpha virt. eigenvalues --    9.52989   9.53223   9.53346   9.53566   9.53746
 Alpha virt. eigenvalues --    9.53899   9.54132   9.54572   9.54647   9.54936
 Alpha virt. eigenvalues --    9.55186   9.55698   9.55806   9.56254   9.56493
 Alpha virt. eigenvalues --    9.56681   9.57016   9.57412   9.57823   9.57909
 Alpha virt. eigenvalues --    9.58249   9.58679   9.59029   9.59803   9.59882
 Alpha virt. eigenvalues --    9.60073   9.60985   9.61649   9.62176   9.62449
 Alpha virt. eigenvalues --    9.63078   9.63454   9.63886   9.64103   9.64343
 Alpha virt. eigenvalues --    9.64507   9.64844   9.65136   9.65210   9.65563
 Alpha virt. eigenvalues --    9.65852   9.66335   9.66430   9.67034   9.67137
 Alpha virt. eigenvalues --    9.67390   9.67544   9.67708   9.67972   9.68439
 Alpha virt. eigenvalues --    9.69088   9.69417   9.70541   9.70702   9.70750
 Alpha virt. eigenvalues --    9.71182   9.71365   9.71636   9.72141   9.72267
 Alpha virt. eigenvalues --    9.72798   9.72973   9.73868   9.74079   9.75363
 Alpha virt. eigenvalues --    9.75538   9.75910   9.76972   9.77896   9.78636
 Alpha virt. eigenvalues --    9.79160   9.79631   9.80665   9.81688   9.82146
 Alpha virt. eigenvalues --    9.82711   9.83102   9.83964   9.84927   9.84991
 Alpha virt. eigenvalues --    9.85261   9.85783   9.86514   9.86769   9.87266
 Alpha virt. eigenvalues --    9.88438   9.88754   9.89355   9.90161   9.90295
 Alpha virt. eigenvalues --    9.90440   9.90521   9.90931   9.91879   9.92291
 Alpha virt. eigenvalues --    9.92559   9.93370   9.93659   9.93755   9.95162
 Alpha virt. eigenvalues --    9.95570   9.96020   9.97041   9.97301   9.97871
 Alpha virt. eigenvalues --    9.98465   9.99761  10.00417  10.00565  10.00638
 Alpha virt. eigenvalues --   10.01379  10.01426  10.01939  10.02633  10.03076
 Alpha virt. eigenvalues --   10.03568  10.04092  10.04469  10.05373  10.05662
 Alpha virt. eigenvalues --   10.08558  10.08683  10.09369  10.09407  10.10085
 Alpha virt. eigenvalues --   10.11400  10.13734  10.14222  10.14839  10.15171
 Alpha virt. eigenvalues --   10.15559  10.15601  10.16930  10.17857  10.18579
 Alpha virt. eigenvalues --   10.19389  10.20382  10.20971  10.21299  10.22634
 Alpha virt. eigenvalues --   10.26946  10.27742  10.28705  10.28821  10.29459
 Alpha virt. eigenvalues --   10.29932  10.30143  10.32168  10.33143  10.34131
 Alpha virt. eigenvalues --   10.34374  10.35839  10.36126  10.73221  10.73653
 Alpha virt. eigenvalues --   10.74220  10.74650  10.75757  11.18630  11.27116
 Alpha virt. eigenvalues --   11.62859  11.63372  11.69366  11.71416  11.71874
 Alpha virt. eigenvalues --   11.72209  11.73408  11.73557  11.78928  11.90311
 Alpha virt. eigenvalues --   11.94482  11.95482  11.98741  11.99455  12.01756
 Alpha virt. eigenvalues --   12.02580  12.03826  12.05357  12.07038  12.12966
 Alpha virt. eigenvalues --   12.14742  12.15159  12.16840  12.19354  12.20638
 Alpha virt. eigenvalues --   12.23524  12.24032  12.25126  12.26220  12.26596
 Alpha virt. eigenvalues --   12.34654  12.46097  12.48169  12.48625  12.50368
 Alpha virt. eigenvalues --   12.50922  12.51452  12.55405  12.63209  12.77136
 Alpha virt. eigenvalues --   12.81278  12.81824  12.83054  12.83221  12.84314
 Alpha virt. eigenvalues --   12.89658  12.91012  12.91739  12.93840  12.95306
 Alpha virt. eigenvalues --   12.99799  13.01241  13.06083  13.12449  13.13056
 Alpha virt. eigenvalues --   13.13435  13.13600  13.14099  13.16278  13.30188
 Alpha virt. eigenvalues --   14.25721  28.31796  28.36094  28.38751  28.40958
 Alpha virt. eigenvalues --   28.42434  28.56807  28.84072  28.99747  29.00241
 Alpha virt. eigenvalues --   29.02367  29.03199  29.03741  29.05648  29.06105
 Alpha virt. eigenvalues --   29.06367  29.06491  29.06885  29.08285  29.08635
 Alpha virt. eigenvalues --   29.09062  29.09565  29.10109  29.12161  29.13465
 Alpha virt. eigenvalues --   29.19179  29.22036  29.23485  29.24710  29.24830
 Alpha virt. eigenvalues --   29.25241  48.31734 145.80060 145.85132 145.88075
 Alpha virt. eigenvalues --  145.90508 145.92147 146.06912 146.31078 146.49950
 Alpha virt. eigenvalues --  146.51063 146.53176 146.54025 146.54613 146.55276
 Alpha virt. eigenvalues --  146.55548 146.55869 146.56178 146.57682 146.59323
 Alpha virt. eigenvalues --  146.60017 146.60496 146.61165 146.61566 146.62138
 Alpha virt. eigenvalues --  146.63840 146.71983 146.72888 146.74446 146.76204
 Alpha virt. eigenvalues --  146.76461 146.77220 251.41346
          Condensed to atoms (all electrons):
 Mulliken charges:
               1
     1  C    0.282927
     2  C   -0.644473
     3  C   -0.092001
     4  C   -0.453435
     5  C   -0.506928
     6  C    0.152968
     7  C   -0.305020
     8  C   -0.532186
     9  C   -0.481404
    10  C    0.175322
    11  C   -0.309998
    12  C   -0.515343
    13  C   -0.521306
    14  C   -0.299534
    15  C    0.149914
    16  C   -0.491956
    17  C   -0.519524
    18  C   -0.306881
    19  C    0.151541
    20  C   -0.483054
    21  C   -0.520770
    22  C   -0.313217
    23  C    0.167407
    24  C   -0.642917
    25  C   -0.685496
    26  C   -0.742380
    27  C   -0.740149
    28  C   -0.685849
    29  H    0.198651
    30  H    0.178774
    31  H    0.210883
    32  H    0.242916
    33  H    0.206492
    34  H    0.220220
    35  H    0.163863
    36  H    0.235412
    37  H    0.221645
    38  H    0.232275
    39  H    0.219629
    40  H    0.229248
    41  H    0.241163
    42  H    0.252270
    43  H    0.230756
    44  H    0.206761
    45  H    0.237459
    46  H    0.251099
    47  H    0.209796
    48  H    0.231772
    49  H    0.223948
    50  H    0.211797
    51  H    0.190397
    52  H    0.213922
    53  H    0.216214
    54  H    0.222228
    55  H    0.219117
    56  H    0.250585
    57  H    0.252928
    58  O   -0.302530
    59  C   -0.737904
    60  H    0.239228
    61  H    0.231477
    62  H    0.227614
    63  C   -0.733406
    64  H    0.237734
    65  H    0.229943
    66  H    0.227461
    67  H    0.212727
    68  H    0.225381
    69  H    0.207347
    70  H    0.242179
    71  H    0.249509
    72  H    0.252165
    73  H    0.242456
    74  H    0.218037
    75  H    0.245355
    76  H    0.269977
    77  H    0.269072
    78  H    0.243829
    79  H    0.281878
    80  H    0.237545
    81  H    0.274454
 Sum of Mulliken charges =  -0.00000
 Mulliken charges with hydrogens summed into heavy atoms:
               1
     1  C    0.282927
     2  C   -0.038988
     3  C    0.071861
     4  C    0.067127
     5  C   -0.039382
     6  C    0.152968
     7  C   -0.081073
     8  C   -0.027093
     9  C   -0.004277
    10  C    0.175322
    11  C   -0.100202
    12  C   -0.021789
    13  C   -0.014775
    14  C   -0.092773
    15  C    0.149914
    16  C   -0.017371
    17  C    0.014623
    18  C   -0.094154
    19  C    0.151541
    20  C   -0.020128
    21  C   -0.004137
    22  C   -0.105871
    23  C    0.167407
    24  C   -0.026801
    25  C   -0.033047
    26  C   -0.053048
    27  C   -0.050110
    28  C   -0.028290
    58  O   -0.302530
    59  C   -0.039585
    63  C   -0.038268
 Electronic spatial extent (au):  <R**2>=          57297.1732
 Charge=             -0.0000 electrons
 Dipole moment (field-independent basis, Debye):
    X=             -0.5001    Y=              0.2098    Z=              2.2717  Tot=              2.3356
 Quadrupole moment (field-independent basis, Debye-Ang):
   XX=           -180.0583   YY=           -195.6537   ZZ=           -202.5523
   XY=              1.0754   XZ=            -23.6622   YZ=             -0.2830
 Traceless Quadrupole moment (field-independent basis, Debye-Ang):
   XX=             12.6965   YY=             -2.8989   ZZ=             -9.7976
   XY=              1.0754   XZ=            -23.6622   YZ=             -0.2830
 Octapole moment (field-independent basis, Debye-Ang**2):
  XXX=           -243.5355  YYY=             -2.7002  ZZZ=             -1.1158  XYY=            -35.3869
  XXY=            -11.4215  XXZ=            186.7939  XZZ=              8.8755  YZZ=             -7.4029
  YYZ=              8.7135  XYZ=             -3.6554
 Hexadecapole moment (field-independent basis, Debye-Ang**3):
 XXXX=         -70200.8470 YYYY=          -2548.9283 ZZZZ=          -1496.9472 XXXY=            710.1671
 XXXZ=          -2607.1350 YYYX=            167.7711 YYYZ=              7.1732 ZZZX=            -62.2514
 ZZZY=              1.9652 XXYY=         -12698.5949 XXZZ=         -13270.1435 YYZZ=           -684.3529
 XXYZ=           -258.9532 YYXZ=             79.7863 ZZXY=            -53.5409
 N-N= 2.602966103583D+03 E-N=-8.099264575002D+03  KE= 1.241622543162D+03
 No NMR shielding tensors so no spin-rotation constants.
 Leave Link  601 at Wed Apr 21 08:35:04 2021, MaxMem= 12079595520 cpu:            9390.8 elap:             200.6
 (Enter /s/ls4/groups/g0130/bin/g16/l9999.exe)

 Test job not archived.
 1\1\GINC-N102\Stability\RM062X\def2QZVP\C30H50O1\ROOT\21-Apr-2021\0\\#
 P M062X/Def2QZVP Integral=UltraFineGrid SCF=NoSymm Stable=(RExt, Opt) 
 IOp(1/33=1)\\Database calculations.\\0,1\C,0,11.7701171,1.417974,-0.37
 76966\C,0,13.256079,1.134505,-0.5025177\C,0,10.8419427,0.2818956,-0.19
 94224\C,0,9.4929077,0.3384881,0.478201\C,0,8.4729752,-0.5811956,-0.231
 8751\C,0,7.1055808,-0.5635564,0.4159204\C,0,6.0517862,-0.0375571,-0.23
 05858\C,0,4.6286015,0.0557158,0.2444812\C,0,3.709122,-0.9607422,-0.488
 0419\C,0,2.2581791,-0.8593212,-0.0710604\C,0,1.325917,-0.4248544,-0.93
 57513\C,0,-0.1505277,-0.2652084,-0.7046069\C,0,-0.9824903,-1.2943128,-
 1.5207493\C,0,-2.4598381,-1.0825318,-1.3447701\C,0,-3.3381224,-1.85493
 36,-0.6825275\C,0,-4.7880413,-1.4369808,-0.5661717\C,0,-5.215722,-1.11
 10748,0.892217\C,0,-6.657989,-0.6964147,0.9682222\C,0,-7.1602131,0.529
 388,1.195234\C,0,-8.6560195,0.7585096,1.1736509\C,0,-9.1223051,1.63335
 3,-0.0234303\C,0,-10.6092931,1.8550212,-0.0103778\C,0,-11.5358949,1.27
 47895,-0.7909355\C,0,-13.0032211,1.5952061,-0.6279981\C,0,11.437815,2.
 8163652,0.1057437\C,0,7.0479568,-1.1579784,1.8033932\C,0,1.9801863,-1.
 2592387,1.3590896\C,0,-11.2385192,0.2722833,-1.8794598\H,0,11.9143429,
 3.5554704,-0.5526248\H,0,13.4246794,0.1148293,-0.8674812\H,0,10.359675
 8,2.9990265,0.1037417\H,0,11.8244912,2.9681493,1.1232173\H,0,13.717202
 1,1.8406007,-1.2068217\H,0,13.7510804,1.2510143,0.4716894\H,0,11.29973
 94,-0.7160345,-0.1776926\H,0,7.6208679,-0.5478524,2.5178451\H,0,6.0270
 776,-1.2549571,2.1850655\H,0,7.5098717,-2.1571052,1.8033322\H,0,0.9117
 535,-1.3284833,1.5848534\H,0,2.4406768,-2.2361064,1.5714938\H,0,2.4288
 754,-0.5410181,2.0615978\H,0,-5.0636594,-2.0072356,1.5113229\H,0,-4.97
 52816,-0.552494,-1.1891014\H,0,-2.8452086,-0.1588979,-1.7864578\H,0,-0
 .7168793,-1.1833252,-2.5838808\H,0,-0.4114242,-0.3649479,0.3552075\H,0
 ,1.6597316,-0.1847486,-1.9494497\H,0,3.8003118,-0.8035654,-1.5714802\H
 ,0,6.2257435,0.3400749,-1.2418701\H,0,-13.4199604,2.0015459,-1.5631971
 \H,0,-13.172456,2.3250121,0.1732305\H,0,-13.5784892,0.6844547,-0.39816
 69\H,0,-11.7907825,-0.6618871,-1.6931892\H,0,-10.1753703,0.0273053,-1.
 9635642\H,0,-11.5850681,0.6499612,-2.8541968\H,0,9.618446,0.0250796,1.
 5251381\H,0,4.55772,-0.1026422,1.326177\O,0,10.9698273,0.9304964,-1.48
 97836\C,0,-2.9922425,-3.1554177,0.0024674\H,0,-3.1262998,-3.068921,1.0
 908309\H,0,-3.6722725,-3.953033,-0.3340972\H,0,-1.9639908,-3.47932,-0.
 1839807\C,0,-6.3296839,1.7622437,1.4601258\H,0,-6.4561577,2.4964301,0.
 6508635\H,0,-6.6670626,2.2546285,2.3851703\H,0,-5.2606972,1.5489193,1.
 5537329\H,0,-7.3756935,-1.4994799,0.777026\H,0,-9.1835273,-0.2031532,1
 .1252938\H,0,-10.9657002,2.5492102,0.7556715\H,0,-8.6131586,2.6063426,
 0.0310265\H,0,8.3980215,-0.266154,-1.2801282\H,0,4.2392461,1.0657144,0
 .0456113\H,0,-0.4623348,0.7464381,-1.0092549\H,0,8.8693692,-1.6103563,
 -0.2242129\H,0,4.0881588,-1.9724422,-0.2727123\H,0,9.1041596,1.3626764
 ,0.4815001\H,0,-0.674419,-2.3030784,-1.2234357\H,0,-5.4379619,-2.24417
 33,-0.942335\H,0,-4.5463237,-0.3360155,1.2836629\H,0,-8.9694253,1.2552
 462,2.1063979\H,0,-8.7905083,1.1543816,-0.9523529\\Version=ES64L-G16Re
 vA.03\State=1-A\HF=-1248.4124008\RMSD=1.466e-09\Dipole=0.1946533,-0.08
 11631,0.8943563\Quadrupole=9.357823,-2.1549141,-7.2029089,0.824867,17.
 6297401,0.2011966\PG=C01 [X(C30H50O1)]\\@


    UPON JULIA'S CLOTHES

 WHENAS IN SILKS MY JULIA GOES,
 THEN, THEN, METHINKS, HOW SWEETLY FLOWS
 THAT LIQUEFACTION OF HER CLOTHES.

 NEXT, WHEN I CAST MINE EYES, AND SEE
 THAT BRAVE VIBRATION, EACH WAY FREE,
 O, HOW THAT GLITTERING TAKETH ME!
     -- ROBERT HERRICK, 1648
 Job cpu time:      43 days 19 hours 14 minutes 13.0 seconds.
 Elapsed time:       0 days 21 hours 58 minutes 54.2 seconds.
 File lengths (MBytes):  RWF=  17984 Int=      0 D2E=      0 Chk=   1172 Scr=      1
 Normal termination of Gaussian 16 at Wed Apr 21 08:35:08 2021.
