 Entering Gaussian System, Link 0=/s/ls4/users/knvvv/bin/g16sse/g16
 Input=data/database/M062X--def2-QZVP--G2RC_66.gjf
 Output=data/database/M062X--def2-QZVP--G2RC_66.log
 Initial command:
 /s/ls4/users/knvvv/bin/g16sse/l1.exe "/s/ls4/users/knvvv/bin/scratch/Gau-11265.inp" -scrdir="/s/ls4/users/knvvv/bin/scratch/"
 Entering Link 1 = /s/ls4/users/knvvv/bin/g16sse/l1.exe PID=     11266.
  
 Copyright (c) 1988,1990,1992,1993,1995,1998,2003,2009,2016,
            Gaussian, Inc.  All Rights Reserved.
  
 This is part of the Gaussian(R) 16 program.  It is based on
 the Gaussian(R) 09 system (copyright 2009, Gaussian, Inc.),
 the Gaussian(R) 03 system (copyright 2003, Gaussian, Inc.),
 the Gaussian(R) 98 system (copyright 1998, Gaussian, Inc.),
 the Gaussian(R) 94 system (copyright 1995, Gaussian, Inc.),
 the Gaussian 92(TM) system (copyright 1992, Gaussian, Inc.),
 the Gaussian 90(TM) system (copyright 1990, Gaussian, Inc.),
 the Gaussian 88(TM) system (copyright 1988, Gaussian, Inc.),
 the Gaussian 86(TM) system (copyright 1986, Carnegie Mellon
 University), and the Gaussian 82(TM) system (copyright 1983,
 Carnegie Mellon University). Gaussian is a federally registered
 trademark of Gaussian, Inc.
  
 This software contains proprietary and confidential information,
 including trade secrets, belonging to Gaussian, Inc.
  
 This software is provided under written license and may be
 used, copied, transmitted, or stored only in accord with that
 written license.
  
 The following legend is applicable only to US Government
 contracts under FAR:
  
                    RESTRICTED RIGHTS LEGEND
  
 Use, reproduction and disclosure by the US Government is
 subject to restrictions as set forth in subparagraphs (a)
 and (c) of the Commercial Computer Software - Restricted
 Rights clause in FAR 52.227-19.
  
 Gaussian, Inc.
 340 Quinnipiac St., Bldg. 40, Wallingford CT 06492
  
  
 ---------------------------------------------------------------
 Warning -- This program may not be used in any manner that
 competes with the business of Gaussian, Inc. or will provide
 assistance to any competitor of Gaussian, Inc.  The licensee
 of this program is prohibited from giving any competitor of
 Gaussian, Inc. access to this program.  By using this program,
 the user acknowledges that Gaussian, Inc. is engaged in the
 business of creating and licensing software in the field of
 computational chemistry and represents and warrants to the
 licensee that it is not a competitor of Gaussian, Inc. and that
 it will not use this program in any manner prohibited above.
 ---------------------------------------------------------------
  

 Cite this work as:
 Gaussian 16, Revision A.03,
 M. J. Frisch, G. W. Trucks, H. B. Schlegel, G. E. Scuseria, 
 M. A. Robb, J. R. Cheeseman, G. Scalmani, V. Barone, 
 G. A. Petersson, H. Nakatsuji, X. Li, M. Caricato, A. V. Marenich, 
 J. Bloino, B. G. Janesko, R. Gomperts, B. Mennucci, H. P. Hratchian, 
 J. V. Ortiz, A. F. Izmaylov, J. L. Sonnenberg, D. Williams-Young, 
 F. Ding, F. Lipparini, F. Egidi, J. Goings, B. Peng, A. Petrone, 
 T. Henderson, D. Ranasinghe, V. G. Zakrzewski, J. Gao, N. Rega, 
 G. Zheng, W. Liang, M. Hada, M. Ehara, K. Toyota, R. Fukuda, 
 J. Hasegawa, M. Ishida, T. Nakajima, Y. Honda, O. Kitao, H. Nakai, 
 T. Vreven, K. Throssell, J. A. Montgomery, Jr., J. E. Peralta, 
 F. Ogliaro, M. J. Bearpark, J. J. Heyd, E. N. Brothers, K. N. Kudin, 
 V. N. Staroverov, T. A. Keith, R. Kobayashi, J. Normand, 
 K. Raghavachari, A. P. Rendell, J. C. Burant, S. S. Iyengar, 
 J. Tomasi, M. Cossi, J. M. Millam, M. Klene, C. Adamo, R. Cammi, 
 J. W. Ochterski, R. L. Martin, K. Morokuma, O. Farkas, 
 J. B. Foresman, and D. J. Fox, Gaussian, Inc., Wallingford CT, 2016.
 
 ******************************************
 Gaussian 16:  ES64L-G16RevA.03 25-Dec-2016
                17-Apr-2021 
 ******************************************
 %RWF=temp12_84281,70GB
 %nprocshared=48
 Will use up to   48 processors via shared memory.
 Default route: MaxDisk=80GB
 ----------------------------------------------------------------------
 #P M062X/Def2QZVP Integral=UltraFineGrid SCF=NoSymm Stable=(RExt, Opt)
  IOp(1/33=1)
 ----------------------------------------------------------------------
 1/33=1,38=1,172=1/1;
 2/12=2,17=6,18=5,40=1/2;
 3/5=45,7=101,11=2,25=1,30=1,74=-55,75=-5/1,2,3;
 4/9=2/1;
 5/5=2,38=5/2;
 6/7=2,8=2,9=2,10=2,28=1/1;
 8/6=1,10=90,11=11/1;
 9/8=-3,42=1,46=1/14;
 5/5=2,8=3,17=40,38=5/8(-2);
 6/7=2,8=2,9=2,10=2,28=1/1;
 99/5=1,9=1/99;
 Leave Link    1 at Sat Apr 17 00:39:09 2021, MaxMem=           0 cpu:               7.1 elap:               0.2
 (Enter /s/ls4/users/knvvv/bin/g16sse/l101.exe)
 ONIOM data not found on unit 2.
 ----------------------
 Database calculations.
 ----------------------
 TstMul:  ICh=     0
 TstMul:  Mul=     1
 TstMul:  ICh=     0
 TstMul:  Mul=     1
 Symbolic Z-matrix:
 Charge =  0 Multiplicity = 1
 SI                    0.        0.        0. 
 F                     0.9102   -0.9102    0.9102 
 F                    -0.9102    0.9102    0.9102 
 F                    -0.9102   -0.9102   -0.9102 
 F                     0.9102    0.9102   -0.9102 
 
 RdStrC is calling ZToCFu for IStruc=1 NZ=     5.
 PrtBox:  NBox=     1 Levels=  1 BoxLen=    8.00 SMaxX=        3.44
          Shift=            1.720032            1.720032            1.720032
 Box      1 Number                   0 centers from      1 to      5:
 After GenITR:
 ITRead=  0  0  0  0  0
 MicOpt= -1 -1 -1 -1 -1
 ITRead=  0  0  0  0  0
 MicOpt= -1 -1 -1 -1 -1
 NAtoms=      5 NQM=        5 NQMF=       0 NMMI=      0 NMMIF=      0
                NMic=       0 NMicF=      0.
                    Isotopes and Nuclear Properties:
 (Nuclear quadrupole moments (NQMom) in fm**2, nuclear magnetic moments (NMagM)
  in nuclear magnetons)

  Atom         1           2           3           4           5
 IAtWgt=          28          19          19          19          19
 AtmWgt=  27.9769284  18.9984033  18.9984033  18.9984033  18.9984033
 NucSpn=           0           1           1           1           1
 AtZEff=  -0.0000000  -0.0000000  -0.0000000  -0.0000000  -0.0000000
 NQMom=    0.0000000   0.0000000   0.0000000   0.0000000   0.0000000
 NMagM=    0.0000000   2.6288670   2.6288670   2.6288670   2.6288670
 AtZNuc=  14.0000000   9.0000000   9.0000000   9.0000000   9.0000000
 No MM parameters found.
 Leave Link  101 at Sat Apr 17 00:39:10 2021, MaxMem=   104857600 cpu:               9.0 elap:               0.2
 (Enter /s/ls4/users/knvvv/bin/g16sse/l202.exe)
                          Input orientation:                          
 ---------------------------------------------------------------------
 Center     Atomic      Atomic             Coordinates (Angstroms)
 Number     Number       Type             X           Y           Z
 ---------------------------------------------------------------------
      1         14           0        0.000000    0.000000    0.000000
      2          9           0        0.910202   -0.910202    0.910202
      3          9           0       -0.910202    0.910202    0.910202
      4          9           0       -0.910202   -0.910202   -0.910202
      5          9           0        0.910202    0.910202   -0.910202
 ---------------------------------------------------------------------
                    Distance matrix (angstroms):
                    1          2          3          4          5
     1  Si   0.000000
     2  F    1.576516   0.000000
     3  F    1.576516   2.574440   0.000000
     4  F    1.576516   2.574440   2.574440   0.000000
     5  F    1.576516   2.574440   2.574440   2.574440   0.000000
 Stoichiometry    F4Si
 Framework group  TD[O(Si),4C3(F)]
 Deg. of freedom     1
 Full point group                 TD      NOp  24
 Largest Abelian subgroup         D2      NOp   4
 Largest concise Abelian subgroup D2      NOp   4
                         Standard orientation:                         
 ---------------------------------------------------------------------
 Center     Atomic      Atomic             Coordinates (Angstroms)
 Number     Number       Type             X           Y           Z
 ---------------------------------------------------------------------
      1         14           0        0.000000    0.000000    0.000000
      2          9           0        0.910202    0.910202    0.910202
      3          9           0       -0.910202   -0.910202    0.910202
      4          9           0        0.910202   -0.910202   -0.910202
      5          9           0       -0.910202    0.910202   -0.910202
 ---------------------------------------------------------------------
 Rotational constants (GHZ):           4.0136054           4.0136054           4.0136054
 Leave Link  202 at Sat Apr 17 00:39:10 2021, MaxMem=   104857600 cpu:              23.1 elap:               0.5
 (Enter /s/ls4/users/knvvv/bin/g16sse/l301.exe)
 Standard basis: def2QZVP (5D, 7F)
 Ernie: Thresh=  0.10000D-02 Tol=  0.10000D-05 Strict=F.
 There are   101 symmetry adapted cartesian basis functions of A   symmetry.
 There are    91 symmetry adapted cartesian basis functions of B1  symmetry.
 There are    91 symmetry adapted cartesian basis functions of B2  symmetry.
 There are    91 symmetry adapted cartesian basis functions of B3  symmetry.
 There are    79 symmetry adapted basis functions of A   symmetry.
 There are    73 symmetry adapted basis functions of B1  symmetry.
 There are    73 symmetry adapted basis functions of B2  symmetry.
 There are    73 symmetry adapted basis functions of B3  symmetry.
   298 basis functions,   489 primitive gaussians,   374 cartesian basis functions
    25 alpha electrons       25 beta electrons
       nuclear repulsion energy       269.0714014306 Hartrees.
 IExCor= 4336 DFT=T Ex+Corr=M062X ExCW=0 ScaHFX=  0.540000
 ScaDFX=  1.000000  1.000000  1.000000  1.000000 ScalE2=  1.000000  1.000000
 IRadAn=      5 IRanWt=     -1 IRanGd=            0 ICorTp=0 IEmpDi=  4
 NAtoms=    5 NActive=    5 NUniq=    2 SFac= 4.00D+00 NAtFMM=   60 NAOKFM=F Big=F
 Integral buffers will be    131072 words long.
 Raffenetti 2 integral format.
 Two-electron integral symmetry is turned on.
 Leave Link  301 at Sat Apr 17 00:39:10 2021, MaxMem=   104857600 cpu:               7.4 elap:               0.2
 (Enter /s/ls4/users/knvvv/bin/g16sse/l302.exe)
 NPDir=0 NMtPBC=     1 NCelOv=     1 NCel=       1 NClECP=     1 NCelD=      1
         NCelK=      1 NCelE2=     1 NClLst=     1 CellRange=     0.0.
 One-electron integrals computed using PRISM.
 One-electron integral symmetry used in STVInt
 PrsmSu:  requested number of processors reduced to:   4 ShMem   1 Linda.
 PrsmSu:  requested number of processors reduced to:  21 ShMem   1 Linda.
  24 Symmetry operations used in ECPInt.
 ECPInt:  NShTT=    4095 NPrTT=   12636 LenC2=    3914 LenP2D=    9458.
 LDataN:  DoStor=T MaxTD1= 8 Len=  415
 Number of processors reduced to  24 by ecpmxn.
 NBasis=   298 RedAO= T EigKep=  2.56D-04  NBF=    79    73    73    73
 NBsUse=   298 1.00D-06 EigRej= -1.00D+00 NBFU=    79    73    73    73
 Precomputing XC quadrature grid using
 IXCGrd= 4 IRadAn=           5 IRanWt=          -1 IRanGd=           0 AccXCQ= 0.00D+00.
 Generated NRdTot=       0 NPtTot=           0 NUsed=           0 NTot=          32
 NSgBfM=   372   371   371   372   372 MxSgAt=     5 MxSgA2=     5.
 Leave Link  302 at Sat Apr 17 00:40:36 2021, MaxMem=   104857600 cpu:            4010.7 elap:              85.4
 (Enter /s/ls4/users/knvvv/bin/g16sse/l303.exe)
 DipDrv:  MaxL=1.
 Leave Link  303 at Sat Apr 17 00:40:36 2021, MaxMem=   104857600 cpu:               9.7 elap:               0.3
 (Enter /s/ls4/users/knvvv/bin/g16sse/l401.exe)
 SCF N**3 symmetry information disabled.
 ExpMin= 5.30D-02 ExpMax= 9.18D+05 ExpMxC= 1.27D+03 IAcc=3 IRadAn=         5 AccDes= 0.00D+00
 Harris functional with IExCor= 1009 and IRadAn=       5 diagonalized for initial guess.
 HarFok:  IExCor= 1009 AccDes= 0.00D+00 IRadAn=         5 IDoV= 1 UseB2=F ITyADJ=14
 ICtDFT=  3500011 ScaDFX=  1.000000  1.000000  1.000000  1.000000
 FoFCou: FMM=F IPFlag=           0 FMFlag=      100000 FMFlg1=           0
         NFxFlg=           0 DoJE=T BraDBF=F KetDBF=T FulRan=T
         wScrn=  0.000000 ICntrl=       500 IOpCl=  0 I1Cent=   200000004 NGrid=           0
         NMat0=    1 NMatS0=      1 NMatT0=    0 NMatD0=    1 NMtDS0=    0 NMtDT0=    0
 Petite list used in FoFCou.
 CoulSu:  requested number of processors reduced to:  20 ShMem   1 Linda.
 CoulSu:  requested number of processors reduced to:  20 ShMem   1 Linda.
 CoulSu:  requested number of processors reduced to:  21 ShMem   1 Linda.
 CoulSu:  requested number of processors reduced to:  21 ShMem   1 Linda.
 Harris En= -688.814374015419    
 JPrj=0 DoOrth=F DoCkMO=F.
 Initial guess orbital symmetries:
       Occupied  (A1) (A1) (T2) (T2) (T2) (A1) (T2) (T2) (T2) (A1)
                 (T2) (T2) (T2) (A1) (T2) (T2) (T2) (E) (E) (T2)
                 (T2) (T2) (T1) (T1) (T1)
       Virtual   (A1) (T2) (T2) (T2) (T2) (T2) (T2) (A1) (T2) (T2)
                 (T2) (E) (E) (A1) (T2) (T2) (T2) (T1) (T1) (T1)
                 (E) (E) (T2) (T2) (T2) (T2) (T2) (T2) (E) (E)
                 (T2) (T2) (T2) (A1) (T1) (T1) (T1) (A1) (T2) (T2)
                 (T2) (T2) (T2) (T2) (A1) (E) (E) (T1) (T1) (T1)
                 (E) (E) (T2) (T2) (T2) (T1) (T1) (T1) (T2) (T2)
                 (T2) (T2) (T2) (T2) (T1) (T1) (T1) (E) (E) (A1)
                 (T2) (T2) (T2) (T2) (T2) (T2) (A1) (T1) (T1) (T1)
                 (T2) (T2) (T2) (E) (E) (T2) (T2) (T2) (E) (E)
                 (A1) (T2) (T2) (T2) (T1) (T1) (T1) (A1) (T2) (T2)
                 (T2) (A1) (A2) (T1) (T1) (T1) (T2) (T2) (T2) (E)
                 (E) (A1) (T2) (T2) (T2) (T2) (T2) (T2) (T1) (T1)
                 (T1) (A1) (T2) (T2) (T2) (E) (E) (T2) (T2) (T2)
                 (T1) (T1) (T1) (T1) (T1) (T1) (T2) (T2) (T2) (E)
                 (E) (A1) (E) (E) (T2) (T2) (T2) (T2) (T2) (T2)
                 (T1) (T1) (T1) (E) (E) (T1) (T1) (T1) (T2) (T2)
                 (T2) (E) (E) (T2) (T2) (T2) (A1) (T2) (T2) (T2)
                 (A1) (T2) (T2) (T2) (T1) (T1) (T1) (A2) (T2) (T2)
                 (T2) (E) (E) (T1) (T1) (T1) (T2) (T2) (T2) (A1)
                 (T2) (T2) (T2) (T1) (T1) (T1) (E) (E) (E) (E)
                 (T2) (T2) (T2) (T1) (T1) (T1) (A1) (T2) (T2) (T2)
                 (A2) (T1) (T1) (T1) (T2) (T2) (T2) (A1) (T2) (T2)
                 (T2) (T1) (T1) (T1) (A1) (E) (E) (T2) (T2) (T2)
                 (E) (E) (T2) (T2) (T2) (T1) (T1) (T1) (A1) (T2)
                 (T2) (T2) (T1) (T1) (T1) (E) (E) (T2) (T2) (T2)
                 (T1) (T1) (T1) (T2) (T2) (T2) (E) (E) (A1) (T2)
                 (T2) (T2) (A1) (A1) (T2) (T2) (T2) (A1) (A1) (T2)
                 (T2) (T2) (A1)
 The electronic state of the initial guess is 1-A1.
 Leave Link  401 at Sat Apr 17 00:40:38 2021, MaxMem=   104857600 cpu:             103.5 elap:               2.5
 (Enter /s/ls4/users/knvvv/bin/g16sse/l502.exe)
 Integral symmetry usage will be decided dynamically.
 Closed shell SCF:
 Using DIIS extrapolation, IDIIS=  1040.
 NGot=   104857600 LenX=   104552851 LenY=   104412534
 Requested convergence on RMS density matrix=1.00D-08 within 128 cycles.
 Requested convergence on MAX density matrix=1.00D-06.
 Requested convergence on             energy=1.00D-06.
 No special actions if energy rises.
 Fock matrices will be formed incrementally for  20 cycles.
 Integral accuracy reduced to 1.0D-05 until final iterations.

 Cycle   1  Pass 0  IDiag  1:
 FoFJK:  IHMeth= 1 ICntrl=       0 DoSepK=F KAlg= 0 I1Cent=           0 FoldK=F
 IRaf= 920000000 NMat=       1 IRICut=       1 DoRegI=T DoRafI=F ISym2E= 1 IDoP0=0 IntGTp=1.
 FoFCou: FMM=F IPFlag=           0 FMFlag=      100000 FMFlg1=           0
         NFxFlg=           0 DoJE=F BraDBF=F KetDBF=F FulRan=T
         wScrn=  0.000000 ICntrl=         0 IOpCl=  0 I1Cent=           0 NGrid=           0
         NMat0=    1 NMatS0=      1 NMatT0=    0 NMatD0=    1 NMtDS0=    0 NMtDT0=    0
 Petite list used in FoFCou.
 CoulSu:  requested number of processors reduced to:  21 ShMem   1 Linda.
 E= -689.139781862134    
 DIIS: error= 5.07D-02 at cycle   1 NSaved=   1.
 NSaved= 1 IEnMin= 1 EnMin= -689.139781862134     IErMin= 1 ErrMin= 5.07D-02
 ErrMax= 5.07D-02  0.00D+00 EMaxC= 1.00D-01 BMatC= 2.95D-01 BMatP= 2.95D-01
 IDIUse=3 WtCom= 4.93D-01 WtEn= 5.07D-01
 Coeff-Com:  0.100D+01
 Coeff-En:   0.100D+01
 Coeff:      0.100D+01
 Gap=     0.517 Goal=   None    Shift=    0.000
 GapD=    0.517 DampG=2.000 DampE=0.500 DampFc=1.0000 IDamp=-1.
 RMSDP=1.05D-03 MaxDP=6.27D-02              OVMax= 8.45D-02

 Cycle   2  Pass 0  IDiag  1:
 RMSU=  1.05D-03    CP:  9.93D-01
 CoulSu:  requested number of processors reduced to:  21 ShMem   1 Linda.
 E= -689.128179349701     Delta-E=        0.011602512433 Rises=F Damp=F
 DIIS: error= 3.16D-02 at cycle   2 NSaved=   2.
 NSaved= 2 IEnMin= 1 EnMin= -689.139781862134     IErMin= 2 ErrMin= 3.16D-02
 ErrMax= 3.16D-02  0.00D+00 EMaxC= 1.00D-01 BMatC= 2.19D-01 BMatP= 2.95D-01
 IDIUse=3 WtCom= 6.84D-01 WtEn= 3.16D-01
 Coeff-Com:  0.455D+00 0.545D+00
 Coeff-En:   0.529D+00 0.471D+00
 Coeff:      0.478D+00 0.522D+00
 Gap=     0.590 Goal=   None    Shift=    0.000
 RMSDP=5.10D-04 MaxDP=3.02D-02 DE= 1.16D-02 OVMax= 5.77D-02

 Cycle   3  Pass 0  IDiag  1:
 RMSU=  2.78D-04    CP:  9.97D-01  5.93D-01
 CoulSu:  requested number of processors reduced to:  21 ShMem   1 Linda.
 E= -689.236251324277     Delta-E=       -0.108071974576 Rises=F Damp=F
 DIIS: error= 4.62D-03 at cycle   3 NSaved=   3.
 NSaved= 3 IEnMin= 3 EnMin= -689.236251324277     IErMin= 3 ErrMin= 4.62D-03
 ErrMax= 4.62D-03  0.00D+00 EMaxC= 1.00D-01 BMatC= 4.01D-03 BMatP= 2.19D-01
 IDIUse=3 WtCom= 9.54D-01 WtEn= 4.62D-02
 Coeff-Com: -0.187D-02 0.114D+00 0.888D+00
 Coeff-En:   0.000D+00 0.000D+00 0.100D+01
 Coeff:     -0.178D-02 0.109D+00 0.893D+00
 Gap=     0.582 Goal=   None    Shift=    0.000
 RMSDP=7.57D-05 MaxDP=4.20D-03 DE=-1.08D-01 OVMax= 6.31D-03

 Cycle   4  Pass 0  IDiag  1:
 RMSU=  4.46D-05    CP:  9.96D-01  6.47D-01  9.28D-01
 CoulSu:  requested number of processors reduced to:  21 ShMem   1 Linda.
 E= -689.238207918917     Delta-E=       -0.001956594640 Rises=F Damp=F
 DIIS: error= 4.99D-04 at cycle   4 NSaved=   4.
 NSaved= 4 IEnMin= 4 EnMin= -689.238207918917     IErMin= 4 ErrMin= 4.99D-04
 ErrMax= 4.99D-04  0.00D+00 EMaxC= 1.00D-01 BMatC= 4.37D-05 BMatP= 4.01D-03
 IDIUse=3 WtCom= 9.95D-01 WtEn= 4.99D-03
 Coeff-Com: -0.350D-02 0.184D-01 0.200D+00 0.785D+00
 Coeff-En:   0.000D+00 0.000D+00 0.000D+00 0.100D+01
 Coeff:     -0.348D-02 0.183D-01 0.199D+00 0.786D+00
 Gap=     0.583 Goal=   None    Shift=    0.000
 RMSDP=8.85D-06 MaxDP=5.41D-04 DE=-1.96D-03 OVMax= 5.94D-04

 Initial convergence to 1.0D-05 achieved.  Increase integral accuracy.
 Cycle   5  Pass 1  IDiag  1:
 CoulSu:  requested number of processors reduced to:  21 ShMem   1 Linda.
 E= -689.238242676947     Delta-E=       -0.000034758030 Rises=F Damp=F
 DIIS: error= 1.01D-04 at cycle   1 NSaved=   1.
 NSaved= 1 IEnMin= 1 EnMin= -689.238242676947     IErMin= 1 ErrMin= 1.01D-04
 ErrMax= 1.01D-04  0.00D+00 EMaxC= 1.00D-01 BMatC= 1.79D-06 BMatP= 1.79D-06
 IDIUse=3 WtCom= 9.99D-01 WtEn= 1.01D-03
 Coeff-Com:  0.100D+01
 Coeff-En:   0.100D+01
 Coeff:      0.100D+01
 Gap=     0.583 Goal=   None    Shift=    0.000
 RMSDP=8.85D-06 MaxDP=5.41D-04 DE=-3.48D-05 OVMax= 2.02D-04

 Cycle   6  Pass 1  IDiag  1:
 RMSU=  1.59D-05    CP:  1.00D+00
 CoulSu:  requested number of processors reduced to:  21 ShMem   1 Linda.
 E= -689.238243238708     Delta-E=       -0.000000561761 Rises=F Damp=F
 DIIS: error= 5.75D-05 at cycle   2 NSaved=   2.
 NSaved= 2 IEnMin= 2 EnMin= -689.238243238708     IErMin= 2 ErrMin= 5.75D-05
 ErrMax= 5.75D-05  0.00D+00 EMaxC= 1.00D-01 BMatC= 6.48D-07 BMatP= 1.79D-06
 IDIUse=1 WtCom= 1.00D+00 WtEn= 0.00D+00
 Coeff-Com:  0.335D+00 0.665D+00
 Coeff:      0.335D+00 0.665D+00
 Gap=     0.583 Goal=   None    Shift=    0.000
 RMSDP=1.15D-06 MaxDP=7.53D-05 DE=-5.62D-07 OVMax= 1.11D-04

 Cycle   7  Pass 1  IDiag  1:
 RMSU=  1.10D-06    CP:  1.00D+00  1.02D+00
 CoulSu:  requested number of processors reduced to:  21 ShMem   1 Linda.
 E= -689.238243516438     Delta-E=       -0.000000277729 Rises=F Damp=F
 DIIS: error= 2.48D-05 at cycle   3 NSaved=   3.
 NSaved= 3 IEnMin= 3 EnMin= -689.238243516438     IErMin= 3 ErrMin= 2.48D-05
 ErrMax= 2.48D-05  0.00D+00 EMaxC= 1.00D-01 BMatC= 1.24D-07 BMatP= 6.48D-07
 IDIUse=1 WtCom= 1.00D+00 WtEn= 0.00D+00
 Coeff-Com: -0.221D-01 0.294D+00 0.728D+00
 Coeff:     -0.221D-01 0.294D+00 0.728D+00
 Gap=     0.583 Goal=   None    Shift=    0.000
 RMSDP=6.56D-07 MaxDP=5.66D-05 DE=-2.78D-07 OVMax= 4.33D-05

 Cycle   8  Pass 1  IDiag  1:
 RMSU=  2.55D-07    CP:  1.00D+00  1.06D+00  8.00D-01
 CoulSu:  requested number of processors reduced to:  21 ShMem   1 Linda.
 E= -689.238243576820     Delta-E=       -0.000000060383 Rises=F Damp=F
 DIIS: error= 1.51D-06 at cycle   4 NSaved=   4.
 NSaved= 4 IEnMin= 4 EnMin= -689.238243576820     IErMin= 4 ErrMin= 1.51D-06
 ErrMax= 1.51D-06  0.00D+00 EMaxC= 1.00D-01 BMatC= 4.18D-10 BMatP= 1.24D-07
 IDIUse=1 WtCom= 1.00D+00 WtEn= 0.00D+00
 Coeff-Com: -0.876D-02 0.345D-01 0.806D-01 0.894D+00
 Coeff:     -0.876D-02 0.345D-01 0.806D-01 0.894D+00
 Gap=     0.583 Goal=   None    Shift=    0.000
 RMSDP=9.99D-08 MaxDP=8.36D-06 DE=-6.04D-08 OVMax= 4.43D-06

 Cycle   9  Pass 1  IDiag  1:
 RMSU=  2.64D-08    CP:  1.00D+00  1.06D+00  8.13D-01  1.17D+00
 CoulSu:  requested number of processors reduced to:  21 ShMem   1 Linda.
 E= -689.238243577069     Delta-E=       -0.000000000249 Rises=F Damp=F
 DIIS: error= 3.80D-07 at cycle   5 NSaved=   5.
 NSaved= 5 IEnMin= 5 EnMin= -689.238243577069     IErMin= 5 ErrMin= 3.80D-07
 ErrMax= 3.80D-07  0.00D+00 EMaxC= 1.00D-01 BMatC= 2.83D-11 BMatP= 4.18D-10
 IDIUse=1 WtCom= 1.00D+00 WtEn= 0.00D+00
 Coeff-Com:  0.933D-03-0.146D-01-0.429D-01 0.561D-01 0.100D+01
 Coeff:      0.933D-03-0.146D-01-0.429D-01 0.561D-01 0.100D+01
 Gap=     0.583 Goal=   None    Shift=    0.000
 RMSDP=2.61D-08 MaxDP=2.38D-06 DE=-2.49D-10 OVMax= 2.01D-06

 Cycle  10  Pass 1  IDiag  1:
 RMSU=  6.89D-09    CP:  1.00D+00  1.06D+00  8.13D-01  1.22D+00  1.02D+00
 CoulSu:  requested number of processors reduced to:  21 ShMem   1 Linda.
 E= -689.238243577075     Delta-E=       -0.000000000006 Rises=F Damp=F
 DIIS: error= 6.26D-08 at cycle   6 NSaved=   6.
 NSaved= 6 IEnMin= 6 EnMin= -689.238243577075     IErMin= 6 ErrMin= 6.26D-08
 ErrMax= 6.26D-08  0.00D+00 EMaxC= 1.00D-01 BMatC= 7.47D-13 BMatP= 2.83D-11
 IDIUse=1 WtCom= 1.00D+00 WtEn= 0.00D+00
 Coeff-Com:  0.182D-03-0.694D-03-0.850D-04-0.293D-01 0.205D-01 0.101D+01
 Coeff:      0.182D-03-0.694D-03-0.850D-04-0.293D-01 0.205D-01 0.101D+01
 Gap=     0.583 Goal=   None    Shift=    0.000
 RMSDP=1.87D-09 MaxDP=9.34D-08 DE=-6.48D-12 OVMax= 2.48D-07

 SCF Done:  E(RM062X) =  -689.238243577     A.U. after   10 cycles
            NFock= 10  Conv=0.19D-08     -V/T= 2.0026
 KE= 6.874670014624D+02 PE=-2.181771366996D+03 EE= 5.359947205262D+02
 Leave Link  502 at Sat Apr 17 00:41:59 2021, MaxMem=   104857600 cpu:            3634.6 elap:              80.7
 (Enter /s/ls4/users/knvvv/bin/g16sse/l601.exe)
 Copying SCF densities to generalized density rwf, IOpCl= 0 IROHF=0.

 **********************************************************************

            Population analysis using the SCF density.

 **********************************************************************

 Orbital symmetries:
       Occupied  (A1) (T2) (T2) (T2) (A1) (A1) (T2) (T2) (T2) (A1)
                 (T2) (T2) (T2) (A1) (T2) (T2) (T2) (E) (E) (T2)
                 (T2) (T2) (T1) (T1) (T1)
       Virtual   (A1) (T2) (T2) (T2) (T2) (T2) (T2) (A1) (T2) (T2)
                 (T2) (E) (E) (A1) (T2) (T2) (T2) (T1) (T1) (T1)
                 (E) (E) (T2) (T2) (T2) (T2) (T2) (T2) (E) (E)
                 (T2) (T2) (T2) (A1) (T1) (T1) (T1) (A1) (T2) (T2)
                 (T2) (T2) (T2) (T2) (A1) (E) (E) (T1) (T1) (T1)
                 (E) (E) (T2) (T2) (T2) (T1) (T1) (T1) (T2) (T2)
                 (T2) (T2) (T2) (T2) (T1) (T1) (T1) (E) (E) (A1)
                 (T2) (T2) (T2) (T2) (T2) (T2) (A1) (T1) (T1) (T1)
                 (T2) (T2) (T2) (E) (E) (T2) (T2) (T2) (E) (E)
                 (A1) (T1) (T1) (T1) (T2) (T2) (T2) (A1) (T2) (T2)
                 (T2) (A1) (A2) (T1) (T1) (T1) (T2) (T2) (T2) (A1)
                 (E) (E) (T2) (T2) (T2) (T2) (T2) (T2) (T1) (T1)
                 (T1) (A1) (T2) (T2) (T2) (E) (E) (T2) (T2) (T2)
                 (T1) (T1) (T1) (T1) (T1) (T1) (E) (E) (T2) (T2)
                 (T2) (A1) (E) (E) (T2) (T2) (T2) (T2) (T2) (T2)
                 (T1) (T1) (T1) (E) (E) (T1) (T1) (T1) (T2) (T2)
                 (T2) (E) (E) (A1) (T2) (T2) (T2) (T2) (T2) (T2)
                 (A1) (T2) (T2) (T2) (T1) (T1) (T1) (A2) (T2) (T2)
                 (T2) (T2) (T2) (T2) (E) (E) (T1) (T1) (T1) (A1)
                 (T1) (T1) (T1) (T2) (T2) (T2) (E) (E) (T2) (T2)
                 (T2) (E) (E) (T1) (T1) (T1) (A1) (T2) (T2) (T2)
                 (A2) (T1) (T1) (T1) (T2) (T2) (T2) (A1) (T2) (T2)
                 (T2) (T1) (T1) (T1) (A1) (E) (E) (T2) (T2) (T2)
                 (E) (E) (T2) (T2) (T2) (T1) (T1) (T1) (A1) (T2)
                 (T2) (T2) (T1) (T1) (T1) (E) (E) (T2) (T2) (T2)
                 (T1) (T1) (T1) (T2) (T2) (T2) (E) (E) (A1) (T2)
                 (T2) (T2) (A1) (A1) (T2) (T2) (T2) (A1) (A1) (T2)
                 (T2) (T2) (A1)
 The electronic state is 1-A1.
 Alpha  occ. eigenvalues --  -67.16051 -25.28315 -25.28315 -25.28315 -25.28314
 Alpha  occ. eigenvalues --   -5.68524  -3.99940  -3.99940  -3.99940  -1.40987
 Alpha  occ. eigenvalues --   -1.37571  -1.37571  -1.37571  -0.72070  -0.64852
 Alpha  occ. eigenvalues --   -0.64852  -0.64852  -0.59790  -0.59790  -0.58564
 Alpha  occ. eigenvalues --   -0.58564  -0.58564  -0.55262  -0.55262  -0.55262
 Alpha virt. eigenvalues --    0.03016   0.06585   0.06585   0.06585   0.19551
 Alpha virt. eigenvalues --    0.19551   0.19551   0.22215   0.25491   0.25491
 Alpha virt. eigenvalues --    0.25491   0.30411   0.30411   0.35115   0.40909
 Alpha virt. eigenvalues --    0.40909   0.40909   0.45144   0.45144   0.45144
 Alpha virt. eigenvalues --    0.47727   0.47727   0.52723   0.52723   0.52723
 Alpha virt. eigenvalues --    0.64659   0.64659   0.64659   0.68965   0.68965
 Alpha virt. eigenvalues --    0.74027   0.74027   0.74027   0.75323   0.81219
 Alpha virt. eigenvalues --    0.81219   0.81219   0.96914   1.05665   1.05665
 Alpha virt. eigenvalues --    1.05665   1.11811   1.11811   1.11811   1.18836
 Alpha virt. eigenvalues --    1.38760   1.38760   1.45682   1.45682   1.45682
 Alpha virt. eigenvalues --    1.58262   1.58262   1.61620   1.61620   1.61620
 Alpha virt. eigenvalues --    1.66953   1.66953   1.66953   1.72292   1.72292
 Alpha virt. eigenvalues --    1.72292   1.77309   1.77309   1.77309   1.81891
 Alpha virt. eigenvalues --    1.81891   1.81891   1.84403   1.84403   1.85454
 Alpha virt. eigenvalues --    1.86078   1.86078   1.86078   1.99199   1.99199
 Alpha virt. eigenvalues --    1.99199   2.12749   2.20365   2.20365   2.20365
 Alpha virt. eigenvalues --    2.28419   2.28419   2.28419   2.32530   2.32530
 Alpha virt. eigenvalues --    2.61287   2.61287   2.61287   2.70336   2.70336
 Alpha virt. eigenvalues --    2.81129   2.93073   2.93073   2.93073   2.95534
 Alpha virt. eigenvalues --    2.95534   2.95534   3.04693   3.52175   3.52175
 Alpha virt. eigenvalues --    3.52175   3.77147   4.12570   4.13431   4.13431
 Alpha virt. eigenvalues --    4.13431   4.15127   4.15127   4.15127   4.32149
 Alpha virt. eigenvalues --    4.32823   4.32823   4.35585   4.35585   4.35585
 Alpha virt. eigenvalues --    4.38693   4.38693   4.38693   4.45363   4.45363
 Alpha virt. eigenvalues --    4.45363   4.54008   4.67349   4.67349   4.67349
 Alpha virt. eigenvalues --    4.80309   4.80309   4.95808   4.95808   4.95808
 Alpha virt. eigenvalues --    5.08043   5.08043   5.08043   5.15448   5.15448
 Alpha virt. eigenvalues --    5.15448   5.32357   5.32357   5.32469   5.32469
 Alpha virt. eigenvalues --    5.32469   5.54232   5.57407   5.57407   5.64440
 Alpha virt. eigenvalues --    5.64440   5.64440   5.75662   5.75662   5.75662
 Alpha virt. eigenvalues --    5.84142   5.84142   5.84142   6.08956   6.08956
 Alpha virt. eigenvalues --    6.34481   6.34481   6.34481   6.55916   6.55916
 Alpha virt. eigenvalues --    6.55916   6.66304   6.66304   6.99545   7.06999
 Alpha virt. eigenvalues --    7.06999   7.06999   7.25681   7.25681   7.25681
 Alpha virt. eigenvalues --    7.53210  11.10207  11.10207  11.10207  11.24137
 Alpha virt. eigenvalues --   11.24137  11.24137  11.25195  11.27050  11.27050
 Alpha virt. eigenvalues --   11.27050  11.27995  11.27995  11.27995  11.28346
 Alpha virt. eigenvalues --   11.28346  11.28381  11.28381  11.28381  11.30829
 Alpha virt. eigenvalues --   11.31468  11.31468  11.31468  11.31504  11.31504
 Alpha virt. eigenvalues --   11.31504  11.32485  11.32485  11.37909  11.37909
 Alpha virt. eigenvalues --   11.37909  11.37980  11.37980  11.44741  11.44741
 Alpha virt. eigenvalues --   11.44741  11.49836  12.59721  12.59721  12.59721
 Alpha virt. eigenvalues --   14.37047  14.37400  14.37400  14.37400  14.40414
 Alpha virt. eigenvalues --   14.40414  14.40414  14.45473  14.51557  14.51557
 Alpha virt. eigenvalues --   14.51557  14.51689  14.51689  14.51689  14.63417
 Alpha virt. eigenvalues --   14.63959  14.63959  14.76152  14.76152  14.76152
 Alpha virt. eigenvalues --   14.82068  14.82068  14.91797  14.91797  14.91797
 Alpha virt. eigenvalues --   15.03747  15.03747  15.03747  15.43276  15.65604
 Alpha virt. eigenvalues --   15.65604  15.65604  15.69848  15.69848  15.69848
 Alpha virt. eigenvalues --   15.73923  15.73923  15.83024  15.83024  15.83024
 Alpha virt. eigenvalues --   16.01664  16.01664  16.01664  16.17779  16.17779
 Alpha virt. eigenvalues --   16.17779  16.21870  16.21870  16.31375  16.42768
 Alpha virt. eigenvalues --   16.42768  16.42768  17.27497  54.21672  54.44677
 Alpha virt. eigenvalues --   54.44677  54.44677  58.49485 283.15000 283.36451
 Alpha virt. eigenvalues --  283.36451 283.36451 315.90421
          Condensed to atoms (all electrons):
               1          2          3          4          5
     1  Si  11.019147   0.455038   0.455038   0.455038   0.455038
     2  F    0.455038   8.870097  -0.011653  -0.011653  -0.011653
     3  F    0.455038  -0.011653   8.870097  -0.011653  -0.011653
     4  F    0.455038  -0.011653  -0.011653   8.870097  -0.011653
     5  F    0.455038  -0.011653  -0.011653  -0.011653   8.870097
 Mulliken charges:
               1
     1  Si   1.160699
     2  F   -0.290175
     3  F   -0.290175
     4  F   -0.290175
     5  F   -0.290175
 Sum of Mulliken charges =  -0.00000
 Mulliken charges with hydrogens summed into heavy atoms:
               1
     1  Si   1.160699
     2  F   -0.290175
     3  F   -0.290175
     4  F   -0.290175
     5  F   -0.290175
 Electronic spatial extent (au):  <R**2>=            392.2261
 Charge=             -0.0000 electrons
 Dipole moment (field-independent basis, Debye):
    X=             -0.0000    Y=             -0.0000    Z=              0.0000  Tot=              0.0000
 Quadrupole moment (field-independent basis, Debye-Ang):
   XX=            -32.5978   YY=            -32.5978   ZZ=            -32.5978
   XY=              0.0000   XZ=             -0.0000   YZ=             -0.0000
 Traceless Quadrupole moment (field-independent basis, Debye-Ang):
   XX=              0.0000   YY=              0.0000   ZZ=             -0.0000
   XY=              0.0000   XZ=             -0.0000   YZ=             -0.0000
 Octapole moment (field-independent basis, Debye-Ang**2):
  XXX=             -0.0000  YYY=             -0.0000  ZZZ=             -0.0000  XYY=             -0.0000
  XXY=              0.0000  XXZ=             -0.0000  XZZ=              0.0000  YZZ=             -0.0000
  YYZ=             -0.0000  XYZ=             -4.2643
 Hexadecapole moment (field-independent basis, Debye-Ang**3):
 XXXX=           -124.8062 YYYY=           -124.8062 ZZZZ=           -124.8062 XXXY=             -0.0000
 XXXZ=              0.0000 YYYX=             -0.0000 YYYZ=              0.0000 ZZZX=             -0.0000
 ZZZY=              0.0000 XXYY=            -43.3611 XXZZ=            -43.3611 YYZZ=            -43.3611
 XXYZ=             -0.0000 YYXZ=             -0.0000 ZZXY=             -0.0000
 N-N= 2.690714014306D+02 E-N=-2.181771364542D+03  KE= 6.874670014624D+02
 PrsmSu:  requested number of processors reduced to:  21 ShMem   1 Linda.
 No NMR shielding tensors so no spin-rotation constants.
 Leave Link  601 at Sat Apr 17 00:42:22 2021, MaxMem=   104857600 cpu:            1068.1 elap:              22.9
 (Enter /s/ls4/users/knvvv/bin/g16sse/l801.exe)
 DoSCS=F DFT=T ScalE2(SS,OS)=  1.000000  1.000000
 Range of M.O.s used for correlation:     1   298
 NBasis=   298 NAE=    25 NBE=    25 NFC=     0 NFV=     0
 NROrb=    298 NOA=    25 NOB=    25 NVA=   273 NVB=   273

 **** Warning!!: The largest alpha MO coefficient is  0.24457788D+02

 Leave Link  801 at Sat Apr 17 00:42:22 2021, MaxMem=   104857600 cpu:               4.5 elap:               0.1
 (Enter /s/ls4/users/knvvv/bin/g16sse/l914.exe)
 RHF ground state
 Doing stability rather than CIS.
 Two-electron integrals replicated using symmetry.
 MDV=   104857600 DFT=T DoStab=T Mixed=T DoRPA=F DoScal=F NonHer=F
 Making orbital integer symmetry assigments:
 Orbital symmetries:
       Occupied  (A1) (T2) (T2) (T2) (A1) (A1) (T2) (T2) (T2) (A1)
                 (T2) (T2) (T2) (A1) (T2) (T2) (T2) (E) (E) (T2)
                 (T2) (T2) (T1) (T1) (T1)
       Virtual   (A1) (T2) (T2) (T2) (T2) (T2) (T2) (A1) (T2) (T2)
                 (T2) (E) (E) (A1) (T2) (T2) (T2) (T1) (T1) (T1)
                 (E) (E) (T2) (T2) (T2) (T2) (T2) (T2) (E) (E)
                 (T2) (T2) (T2) (A1) (T1) (T1) (T1) (A1) (T2) (T2)
                 (T2) (T2) (T2) (T2) (A1) (E) (E) (T1) (T1) (T1)
                 (E) (E) (T2) (T2) (T2) (T1) (T1) (T1) (T2) (T2)
                 (T2) (T2) (T2) (T2) (T1) (T1) (T1) (E) (E) (A1)
                 (T2) (T2) (T2) (T2) (T2) (T2) (A1) (T1) (T1) (T1)
                 (T2) (T2) (T2) (E) (E) (T2) (T2) (T2) (E) (E)
                 (A1) (T1) (T1) (T1) (T2) (T2) (T2) (A1) (T2) (T2)
                 (T2) (A1) (A2) (T1) (T1) (T1) (T2) (T2) (T2) (A1)
                 (E) (E) (T2) (T2) (T2) (T2) (T2) (T2) (T1) (T1)
                 (T1) (A1) (T2) (T2) (T2) (E) (E) (T2) (T2) (T2)
                 (T1) (T1) (T1) (T1) (T1) (T1) (E) (E) (T2) (T2)
                 (T2) (A1) (E) (E) (T2) (T2) (T2) (T2) (T2) (T2)
                 (T1) (T1) (T1) (E) (E) (T1) (T1) (T1) (T2) (T2)
                 (T2) (E) (E) (A1) (T2) (T2) (T2) (T2) (T2) (T2)
                 (A1) (T2) (T2) (T2) (T1) (T1) (T1) (A2) (T2) (T2)
                 (T2) (T2) (T2) (T2) (E) (E) (T1) (T1) (T1) (A1)
                 (T1) (T1) (T1) (T2) (T2) (T2) (E) (E) (T2) (T2)
                 (T2) (E) (E) (T1) (T1) (T1) (A1) (T2) (T2) (T2)
                 (A2) (T1) (T1) (T1) (T2) (T2) (T2) (A1) (T2) (T2)
                 (T2) (T1) (T1) (T1) (A1) (E) (E) (T2) (T2) (T2)
                 (E) (E) (T2) (T2) (T2) (T1) (T1) (T1) (A1) (T2)
                 (T2) (T2) (T1) (T1) (T1) (E) (E) (T2) (T2) (T2)
                 (T1) (T1) (T1) (T2) (T2) (T2) (E) (E) (A1) (T2)
                 (T2) (T2) (A1) (A1) (T2) (T2) (T2) (A1) (A1) (T2)
                 (T2) (T2) (A1)
    24 initial guesses have been made.
 Convergence on wavefunction:    0.001000000000000
 Davidson Disk Diagonalization:  ConvIn= 1.00D-03 SkipCon=T Conv= 1.00D-03.
 Max sub-space:  2000 roots to seek:    24 dimension of matrix:        13650
 Iteration     1 Dimension    24 NMult     0 NNew     24
 Estimated number of processors is:   18
 CISAX will form     1 AO SS matrices at one time.
 NMat=     1 NSing=     1 JSym2X= 2.
 FoFJK:  IHMeth= 1 ICntrl=       0 DoSepK=F KAlg= 0 I1Cent=           0 FoldK=F
 IRaf= 920000000 NMat=       1 IRICut=       1 DoRegI=T DoRafI=F ISym2E= 2 IDoP0=0 IntGTp=1.
 FoFCou: FMM=F IPFlag=           0 FMFlag=      100000 FMFlg1=           0
         NFxFlg=           0 DoJE=F BraDBF=F KetDBF=F FulRan=T
         wScrn=  0.000000 ICntrl=         0 IOpCl=  0 I1Cent=           0 NGrid=           0
         NMat0=    1 NMatS0=      1 NMatT0=    0 NMatD0=    1 NMtDS0=    0 NMtDT0=    0
 Integrals replicated using symmetry in FoFCou.
 CoulSu:  requested number of processors reduced to:  18 ShMem   1 Linda.
 NMat=     1 NSing=     1 JSym2X= 2.
 CoulSu:  requested number of processors reduced to:  18 ShMem   1 Linda.
 NMat=     1 NSing=     1 JSym2X= 2.
 CoulSu:  requested number of processors reduced to:  18 ShMem   1 Linda.
 NMat=     1 NSing=     1 JSym2X= 2.
 CoulSu:  requested number of processors reduced to:  18 ShMem   1 Linda.
 NMat=     1 NSing=     1 JSym2X= 2.
 CoulSu:  requested number of processors reduced to:  18 ShMem   1 Linda.
 NMat=     1 NSing=     1 JSym2X= 2.
 CoulSu:  requested number of processors reduced to:  18 ShMem   1 Linda.
 NMat=     1 NSing=     1 JSym2X= 2.
 CoulSu:  requested number of processors reduced to:  18 ShMem   1 Linda.
 NMat=     1 NSing=     1 JSym2X= 2.
 CoulSu:  requested number of processors reduced to:  18 ShMem   1 Linda.
 NMat=     1 NSing=     1 JSym2X= 2.
 CoulSu:  requested number of processors reduced to:  18 ShMem   1 Linda.
 NMat=     1 NSing=     1 JSym2X= 2.
 CoulSu:  requested number of processors reduced to:  18 ShMem   1 Linda.
 NMat=     1 NSing=     1 JSym2X= 2.
 CoulSu:  requested number of processors reduced to:  18 ShMem   1 Linda.
 NMat=     1 NSing=     1 JSym2X= 2.
 CoulSu:  requested number of processors reduced to:  18 ShMem   1 Linda.
 NMat=     1 NSing=     0 JSym2X= 2.
 CoulSu:  requested number of processors reduced to:  18 ShMem   1 Linda.
 NMat=     1 NSing=     0 JSym2X= 2.
 CoulSu:  requested number of processors reduced to:  18 ShMem   1 Linda.
 NMat=     1 NSing=     0 JSym2X= 2.
 CoulSu:  requested number of processors reduced to:  18 ShMem   1 Linda.
 NMat=     1 NSing=     0 JSym2X= 2.
 CoulSu:  requested number of processors reduced to:  18 ShMem   1 Linda.
 NMat=     1 NSing=     0 JSym2X= 2.
 CoulSu:  requested number of processors reduced to:  18 ShMem   1 Linda.
 NMat=     1 NSing=     0 JSym2X= 2.
 CoulSu:  requested number of processors reduced to:  18 ShMem   1 Linda.
 NMat=     1 NSing=     0 JSym2X= 2.
 CoulSu:  requested number of processors reduced to:  18 ShMem   1 Linda.
 NMat=     1 NSing=     0 JSym2X= 2.
 CoulSu:  requested number of processors reduced to:  18 ShMem   1 Linda.
 NMat=     1 NSing=     0 JSym2X= 2.
 CoulSu:  requested number of processors reduced to:  18 ShMem   1 Linda.
 NMat=     1 NSing=     0 JSym2X= 2.
 CoulSu:  requested number of processors reduced to:  18 ShMem   1 Linda.
 NMat=     1 NSing=     0 JSym2X= 2.
 CoulSu:  requested number of processors reduced to:  18 ShMem   1 Linda.
 NMat=     1 NSing=     0 JSym2X= 2.
 CoulSu:  requested number of processors reduced to:  18 ShMem   1 Linda.
 New state      1 was old state      4
 Excitation Energies [eV] at current iteration:
 Root      1 :    12.032949997057200
 Root      2 :    12.037671480896380
 Root      3 :    12.065314532175710
 Root      4 :    12.378462100270230
 Root      5 :    12.382693880616260
 Root      6 :    12.402675138060670
 Root      7 :    12.865490601642390
 Root      8 :    12.906836801020390
 Root      9 :    12.993128092480190
 Root     10 :    13.790946530659630
 Root     11 :    13.797010584040170
 Root     12 :    13.819135439831400
 Root     13 :    13.936816212702190
 Root     14 :    13.947864265945030
 Root     15 :    14.025960569275810
 Root     16 :    14.035910781734680
 Root     17 :    14.037228138548390
 Root     18 :    14.051835888439260
 Root     19 :    14.091969828829460
 Root     20 :    14.130428711661730
 Root     21 :    14.164454384421210
 Root     22 :    14.546691193185700
 Root     23 :    15.145623383323600
 Root     24 :    15.439658798582910
 Iteration     2 Dimension    48 NMult    24 NNew     24
 Estimated number of processors is:   18
 CISAX will form     1 AO SS matrices at one time.
 NMat=     1 NSing=     1 JSym2X= 2.
 CoulSu:  requested number of processors reduced to:  18 ShMem   1 Linda.
 NMat=     1 NSing=     1 JSym2X= 2.
 CoulSu:  requested number of processors reduced to:  18 ShMem   1 Linda.
 NMat=     1 NSing=     1 JSym2X= 2.
 CoulSu:  requested number of processors reduced to:  18 ShMem   1 Linda.
 NMat=     1 NSing=     1 JSym2X= 2.
 CoulSu:  requested number of processors reduced to:  18 ShMem   1 Linda.
 NMat=     1 NSing=     1 JSym2X= 2.
 CoulSu:  requested number of processors reduced to:  18 ShMem   1 Linda.
 NMat=     1 NSing=     1 JSym2X= 2.
 CoulSu:  requested number of processors reduced to:  18 ShMem   1 Linda.
 NMat=     1 NSing=     1 JSym2X= 2.
 CoulSu:  requested number of processors reduced to:  18 ShMem   1 Linda.
 NMat=     1 NSing=     1 JSym2X= 2.
 CoulSu:  requested number of processors reduced to:  18 ShMem   1 Linda.
 NMat=     1 NSing=     1 JSym2X= 2.
 CoulSu:  requested number of processors reduced to:  18 ShMem   1 Linda.
 NMat=     1 NSing=     1 JSym2X= 2.
 CoulSu:  requested number of processors reduced to:  18 ShMem   1 Linda.
 NMat=     1 NSing=     1 JSym2X= 2.
 CoulSu:  requested number of processors reduced to:  18 ShMem   1 Linda.
 NMat=     1 NSing=     1 JSym2X= 2.
 CoulSu:  requested number of processors reduced to:  18 ShMem   1 Linda.
 NMat=     1 NSing=     0 JSym2X= 2.
 CoulSu:  requested number of processors reduced to:  18 ShMem   1 Linda.
 NMat=     1 NSing=     0 JSym2X= 2.
 CoulSu:  requested number of processors reduced to:  18 ShMem   1 Linda.
 NMat=     1 NSing=     0 JSym2X= 2.
 CoulSu:  requested number of processors reduced to:  18 ShMem   1 Linda.
 NMat=     1 NSing=     0 JSym2X= 2.
 CoulSu:  requested number of processors reduced to:  18 ShMem   1 Linda.
 NMat=     1 NSing=     0 JSym2X= 2.
 CoulSu:  requested number of processors reduced to:  18 ShMem   1 Linda.
 NMat=     1 NSing=     0 JSym2X= 2.
 CoulSu:  requested number of processors reduced to:  18 ShMem   1 Linda.
 NMat=     1 NSing=     0 JSym2X= 2.
 CoulSu:  requested number of processors reduced to:  18 ShMem   1 Linda.
 NMat=     1 NSing=     0 JSym2X= 2.
 CoulSu:  requested number of processors reduced to:  18 ShMem   1 Linda.
 NMat=     1 NSing=     0 JSym2X= 2.
 CoulSu:  requested number of processors reduced to:  18 ShMem   1 Linda.
 NMat=     1 NSing=     0 JSym2X= 2.
 CoulSu:  requested number of processors reduced to:  18 ShMem   1 Linda.
 NMat=     1 NSing=     0 JSym2X= 2.
 CoulSu:  requested number of processors reduced to:  18 ShMem   1 Linda.
 NMat=     1 NSing=     0 JSym2X= 2.
 CoulSu:  requested number of processors reduced to:  18 ShMem   1 Linda.
 Root      1 not converged, maximum delta is    0.157755822964975
 Excitation Energies [eV] at current iteration:
 Root      1 :    11.058790462240120   Change is   -0.974159534817076
 Root      2 :    11.058978083509600   Change is   -0.978693397386782
 Root      3 :    11.060020608994000   Change is   -1.005293923181711
 Root      4 :    11.704821762773000   Change is   -1.160668838869398
 Root      5 :    11.736169990306730   Change is   -1.170666810713662
 Root      6 :    11.803266735169930   Change is   -1.189861357310257
 Root      7 :    11.966969112824200   Change is   -0.411492987446038
 Root      8 :    11.967394252573250   Change is   -0.415299628043017
 Root      9 :    11.969166956939250   Change is   -0.433508181121422
 Root     10 :    12.767291444757830   Change is   -1.268619336976848
 Root     11 :    12.976907737751370   Change is   -0.959908474950818
 Root     12 :    13.006906859006350   Change is   -0.940957406938683
 Root     13 :    13.015665589406690   Change is   -1.114763122255039
 Root     14 :    13.104964733427210   Change is   -1.059489650993995
 Root     15 :    13.342757087821050   Change is   -0.454253496219124
 Root     16 :    13.343035579960160   Change is   -0.447910950699465
 Root     17 :    13.355481294395050   Change is   -0.463654145436357
 Root     18 :    13.405512620700350   Change is   -0.646323267738911
 Root     19 :    13.504964526387870   Change is   -0.532263612160524
 Root     20 :    13.537147153335830   Change is   -0.488813415939978
 Root     21 :    13.686964922048300   Change is   -0.405004906781157
 Root     22 :    13.959261844863300   Change is   -0.587429348322403
 Root     23 :    14.245274711695660   Change is   -0.900348671627941
 Root     24 :    14.435209166973220   Change is   -1.004449631609691
 Iteration     3 Dimension    54 NMult    48 NNew      6
 Estimated number of processors is:   18
 CISAX will form     1 AO SS matrices at one time.
 NMat=     1 NSing=     1 JSym2X= 2.
 CoulSu:  requested number of processors reduced to:  18 ShMem   1 Linda.
 NMat=     1 NSing=     1 JSym2X= 2.
 CoulSu:  requested number of processors reduced to:  18 ShMem   1 Linda.
 NMat=     1 NSing=     1 JSym2X= 2.
 CoulSu:  requested number of processors reduced to:  18 ShMem   1 Linda.
 NMat=     1 NSing=     0 JSym2X= 2.
 CoulSu:  requested number of processors reduced to:  18 ShMem   1 Linda.
 NMat=     1 NSing=     0 JSym2X= 2.
 CoulSu:  requested number of processors reduced to:  18 ShMem   1 Linda.
 NMat=     1 NSing=     0 JSym2X= 2.
 CoulSu:  requested number of processors reduced to:  18 ShMem   1 Linda.
 Root      1 not converged, maximum delta is    0.020763294398235
 Excitation Energies [eV] at current iteration:
 Root      1 :    11.006955918433180   Change is   -0.051834543806945
 Root      2 :    11.007021673639550   Change is   -0.051956409870047
 Root      3 :    11.007376149434120   Change is   -0.052644459559880
 Root      4 :    11.921160422570650   Change is   -0.045808690253544
 Root      5 :    11.921319104919530   Change is   -0.046075147653715
 Root      6 :    11.922120042407370   Change is   -0.047046914531879
 Iteration     4 Dimension    60 NMult    54 NNew      6
 Estimated number of processors is:   18
 CISAX will form     1 AO SS matrices at one time.
 NMat=     1 NSing=     1 JSym2X= 2.
 CoulSu:  requested number of processors reduced to:  18 ShMem   1 Linda.
 NMat=     1 NSing=     1 JSym2X= 2.
 CoulSu:  requested number of processors reduced to:  18 ShMem   1 Linda.
 NMat=     1 NSing=     1 JSym2X= 2.
 CoulSu:  requested number of processors reduced to:  18 ShMem   1 Linda.
 NMat=     1 NSing=     0 JSym2X= 2.
 CoulSu:  requested number of processors reduced to:  18 ShMem   1 Linda.
 NMat=     1 NSing=     0 JSym2X= 2.
 CoulSu:  requested number of processors reduced to:  18 ShMem   1 Linda.
 NMat=     1 NSing=     0 JSym2X= 2.
 CoulSu:  requested number of processors reduced to:  18 ShMem   1 Linda.
 Root      1 not converged, maximum delta is    0.076725113609196
 Excitation Energies [eV] at current iteration:
 Root      1 :    11.001349652674650   Change is   -0.005606265758530
 Root      2 :    11.001363853663400   Change is   -0.005657819976157
 Root      3 :    11.001444830074210   Change is   -0.005931319359905
 Root      4 :    11.914731070070490   Change is   -0.006429352500166
 Root      5 :    11.914773642523630   Change is   -0.006545462395905
 Root      6 :    11.915009477875810   Change is   -0.007110564531554
 Iteration     5 Dimension    66 NMult    60 NNew      6
 Estimated number of processors is:   18
 CISAX will form     1 AO SS matrices at one time.
 NMat=     1 NSing=     1 JSym2X= 2.
 CoulSu:  requested number of processors reduced to:  18 ShMem   1 Linda.
 NMat=     1 NSing=     1 JSym2X= 2.
 CoulSu:  requested number of processors reduced to:  18 ShMem   1 Linda.
 NMat=     1 NSing=     1 JSym2X= 2.
 CoulSu:  requested number of processors reduced to:  18 ShMem   1 Linda.
 NMat=     1 NSing=     0 JSym2X= 2.
 CoulSu:  requested number of processors reduced to:  18 ShMem   1 Linda.
 NMat=     1 NSing=     0 JSym2X= 2.
 CoulSu:  requested number of processors reduced to:  18 ShMem   1 Linda.
 NMat=     1 NSing=     0 JSym2X= 2.
 CoulSu:  requested number of processors reduced to:  18 ShMem   1 Linda.
 Root      1 not converged, maximum delta is    0.063005223147644
 Excitation Energies [eV] at current iteration:
 Root      1 :    11.001125789352000   Change is   -0.000223863322655
 Root      2 :    11.001132128627130   Change is   -0.000231725036263
 Root      3 :    11.001169530556120   Change is   -0.000275299518088
 Root      4 :    11.914281095116430   Change is   -0.000449974954052
 Root      5 :    11.914290550560960   Change is   -0.000483091962664
 Root      6 :    11.914337011823450   Change is   -0.000672466052368
 Iteration     6 Dimension    72 NMult    66 NNew      6
 Estimated number of processors is:   18
 CISAX will form     1 AO SS matrices at one time.
 NMat=     1 NSing=     1 JSym2X= 2.
 CoulSu:  requested number of processors reduced to:  18 ShMem   1 Linda.
 NMat=     1 NSing=     1 JSym2X= 2.
 CoulSu:  requested number of processors reduced to:  18 ShMem   1 Linda.
 NMat=     1 NSing=     1 JSym2X= 2.
 CoulSu:  requested number of processors reduced to:  18 ShMem   1 Linda.
 NMat=     1 NSing=     0 JSym2X= 2.
 CoulSu:  requested number of processors reduced to:  18 ShMem   1 Linda.
 NMat=     1 NSing=     0 JSym2X= 2.
 CoulSu:  requested number of processors reduced to:  18 ShMem   1 Linda.
 NMat=     1 NSing=     0 JSym2X= 2.
 CoulSu:  requested number of processors reduced to:  18 ShMem   1 Linda.
 Root      1 not converged, maximum delta is    0.026117045414479
 Excitation Energies [eV] at current iteration:
 Root      1 :    11.001120359127260   Change is   -0.000005430224737
 Root      2 :    11.001123843492260   Change is   -0.000008285134877
 Root      3 :    11.001138127157950   Change is   -0.000031403398169
 Root      4 :    11.914262137357350   Change is   -0.000018957759083
 Root      5 :    11.914265160431070   Change is   -0.000025390129888
 Root      6 :    11.914275827994990   Change is   -0.000061183828452
 Iteration     7 Dimension    78 NMult    72 NNew      6
 Estimated number of processors is:   18
 CISAX will form     1 AO SS matrices at one time.
 NMat=     1 NSing=     1 JSym2X= 2.
 CoulSu:  requested number of processors reduced to:  18 ShMem   1 Linda.
 NMat=     1 NSing=     1 JSym2X= 2.
 CoulSu:  requested number of processors reduced to:  18 ShMem   1 Linda.
 NMat=     1 NSing=     1 JSym2X= 2.
 CoulSu:  requested number of processors reduced to:  18 ShMem   1 Linda.
 NMat=     1 NSing=     0 JSym2X= 2.
 CoulSu:  requested number of processors reduced to:  18 ShMem   1 Linda.
 NMat=     1 NSing=     0 JSym2X= 2.
 CoulSu:  requested number of processors reduced to:  18 ShMem   1 Linda.
 NMat=     1 NSing=     0 JSym2X= 2.
 CoulSu:  requested number of processors reduced to:  18 ShMem   1 Linda.
 Root      1 not converged, maximum delta is    0.020205471906446
 Excitation Energies [eV] at current iteration:
 Root      1 :    11.001120027361340   Change is   -0.000000331765921
 Root      2 :    11.001121791289790   Change is   -0.000002052202462
 Root      3 :    11.001124424854450   Change is   -0.000013702303506
 Root      4 :    11.914260833916130   Change is   -0.000001303441218
 Root      5 :    11.914261859530450   Change is   -0.000003300900625
 Root      6 :    11.914263542365050   Change is   -0.000012285629941
 Iteration     8 Dimension    84 NMult    78 NNew      6
 Estimated number of processors is:   18
 CISAX will form     1 AO SS matrices at one time.
 NMat=     1 NSing=     1 JSym2X= 2.
 CoulSu:  requested number of processors reduced to:  18 ShMem   1 Linda.
 NMat=     1 NSing=     1 JSym2X= 2.
 CoulSu:  requested number of processors reduced to:  18 ShMem   1 Linda.
 NMat=     1 NSing=     1 JSym2X= 2.
 CoulSu:  requested number of processors reduced to:  18 ShMem   1 Linda.
 NMat=     1 NSing=     0 JSym2X= 2.
 CoulSu:  requested number of processors reduced to:  18 ShMem   1 Linda.
 NMat=     1 NSing=     0 JSym2X= 2.
 CoulSu:  requested number of processors reduced to:  18 ShMem   1 Linda.
 NMat=     1 NSing=     0 JSym2X= 2.
 CoulSu:  requested number of processors reduced to:  18 ShMem   1 Linda.
 Root      1 not converged, maximum delta is    0.011650556341332
 Excitation Energies [eV] at current iteration:
 Root      1 :    11.001119971376000   Change is   -0.000000055985334
 Root      2 :    11.001120691708740   Change is   -0.000001099581055
 Root      3 :    11.001121581915350   Change is   -0.000002842939095
 Root      4 :    11.914260655128020   Change is   -0.000000178788116
 Root      5 :    11.914261019515930   Change is   -0.000000840014519
 Root      6 :    11.914261227856560   Change is   -0.000002314508494
 Iteration     9 Dimension    90 NMult    84 NNew      6
 Estimated number of processors is:   18
 CISAX will form     1 AO SS matrices at one time.
 NMat=     1 NSing=     1 JSym2X= 2.
 CoulSu:  requested number of processors reduced to:  18 ShMem   1 Linda.
 NMat=     1 NSing=     1 JSym2X= 2.
 CoulSu:  requested number of processors reduced to:  18 ShMem   1 Linda.
 NMat=     1 NSing=     1 JSym2X= 2.
 CoulSu:  requested number of processors reduced to:  18 ShMem   1 Linda.
 NMat=     1 NSing=     0 JSym2X= 2.
 CoulSu:  requested number of processors reduced to:  18 ShMem   1 Linda.
 NMat=     1 NSing=     0 JSym2X= 2.
 CoulSu:  requested number of processors reduced to:  18 ShMem   1 Linda.
 NMat=     1 NSing=     0 JSym2X= 2.
 CoulSu:  requested number of processors reduced to:  18 ShMem   1 Linda.
 Root      1 not converged, maximum delta is    0.059220650152138
 Excitation Energies [eV] at current iteration:
 Root      1 :    11.001119932672780   Change is   -0.000000038703227
 Root      2 :    11.001120227379000   Change is   -0.000000464329742
 Root      3 :    11.001120811926130   Change is   -0.000000769989225
 Root      4 :    11.914260541248970   Change is   -0.000000686607591
 Root      5 :    11.914260562056590   Change is   -0.000000457459342
 Root      6 :    11.914260576945660   Change is   -0.000000078182361
 Iteration    10 Dimension    96 NMult    90 NNew      6
 Estimated number of processors is:   18
 CISAX will form     1 AO SS matrices at one time.
 NMat=     1 NSing=     1 JSym2X= 2.
 CoulSu:  requested number of processors reduced to:  18 ShMem   1 Linda.
 NMat=     1 NSing=     1 JSym2X= 2.
 CoulSu:  requested number of processors reduced to:  18 ShMem   1 Linda.
 NMat=     1 NSing=     1 JSym2X= 2.
 CoulSu:  requested number of processors reduced to:  18 ShMem   1 Linda.
 NMat=     1 NSing=     0 JSym2X= 2.
 CoulSu:  requested number of processors reduced to:  18 ShMem   1 Linda.
 NMat=     1 NSing=     0 JSym2X= 2.
 CoulSu:  requested number of processors reduced to:  18 ShMem   1 Linda.
 NMat=     1 NSing=     0 JSym2X= 2.
 CoulSu:  requested number of processors reduced to:  18 ShMem   1 Linda.
 Root      1 not converged, maximum delta is    0.092658787724193
 Excitation Energies [eV] at current iteration:
 Root      1 :    11.001119873902490   Change is   -0.000000058770282
 Root      2 :    11.001119992131150   Change is   -0.000000235247846
 Root      3 :    11.001120407308600   Change is   -0.000000404617526
 Root      4 :    11.914260360034670   Change is   -0.000000181214302
 Root      5 :    11.914260406865000   Change is   -0.000000170080651
 Root      6 :    11.914260460450180   Change is   -0.000000101606413
 Iteration    11 Dimension   102 NMult    96 NNew      6
 Estimated number of processors is:   18
 CISAX will form     1 AO SS matrices at one time.
 NMat=     1 NSing=     1 JSym2X= 2.
 CoulSu:  requested number of processors reduced to:  18 ShMem   1 Linda.
 NMat=     1 NSing=     1 JSym2X= 2.
 CoulSu:  requested number of processors reduced to:  18 ShMem   1 Linda.
 NMat=     1 NSing=     1 JSym2X= 2.
 CoulSu:  requested number of processors reduced to:  18 ShMem   1 Linda.
 NMat=     1 NSing=     0 JSym2X= 2.
 CoulSu:  requested number of processors reduced to:  18 ShMem   1 Linda.
 NMat=     1 NSing=     0 JSym2X= 2.
 CoulSu:  requested number of processors reduced to:  18 ShMem   1 Linda.
 NMat=     1 NSing=     0 JSym2X= 2.
 CoulSu:  requested number of processors reduced to:  18 ShMem   1 Linda.
 Root      1 not converged, maximum delta is    0.107486628447994
 Excitation Energies [eV] at current iteration:
 Root      1 :    11.001119848281320   Change is   -0.000000025621171
 Root      2 :    11.001119891690670   Change is   -0.000000100440482
 Root      3 :    11.001120240036310   Change is   -0.000000167272294
 Root      4 :    11.914260326036390   Change is   -0.000000033998275
 Root      5 :    11.914260378424260   Change is   -0.000000028440747
 Root      6 :    11.914260427413480   Change is   -0.000000033036693
 Iteration    12 Dimension   108 NMult   102 NNew      6
 Estimated number of processors is:   18
 CISAX will form     1 AO SS matrices at one time.
 NMat=     1 NSing=     1 JSym2X= 2.
 CoulSu:  requested number of processors reduced to:  18 ShMem   1 Linda.
 NMat=     1 NSing=     1 JSym2X= 2.
 CoulSu:  requested number of processors reduced to:  18 ShMem   1 Linda.
 NMat=     1 NSing=     1 JSym2X= 2.
 CoulSu:  requested number of processors reduced to:  18 ShMem   1 Linda.
 NMat=     1 NSing=     0 JSym2X= 2.
 CoulSu:  requested number of processors reduced to:  18 ShMem   1 Linda.
 NMat=     1 NSing=     0 JSym2X= 2.
 CoulSu:  requested number of processors reduced to:  18 ShMem   1 Linda.
 NMat=     1 NSing=     0 JSym2X= 2.
 CoulSu:  requested number of processors reduced to:  18 ShMem   1 Linda.
 New state      1 was old state      2
 Root      1 not converged, maximum delta is    0.249442156180627
 Excitation Energies [eV] at current iteration:
 Root      1 :    11.001119793549210   Change is   -0.000000098141455
 Root      2 :    11.001119825194290   Change is   -0.000000023087032
 Root      3 :    11.001120129916110   Change is   -0.000000110120196
 Root      4 :    11.914260313609870   Change is   -0.000000012426524
 Root      5 :    11.914260362033910   Change is   -0.000000016390347
 Root      6 :    11.914260408610190   Change is   -0.000000018803295
 Iteration    13 Dimension   114 NMult   108 NNew      6
 Estimated number of processors is:   18
 CISAX will form     1 AO SS matrices at one time.
 NMat=     1 NSing=     1 JSym2X= 2.
 CoulSu:  requested number of processors reduced to:  18 ShMem   1 Linda.
 NMat=     1 NSing=     1 JSym2X= 2.
 CoulSu:  requested number of processors reduced to:  18 ShMem   1 Linda.
 NMat=     1 NSing=     1 JSym2X= 2.
 CoulSu:  requested number of processors reduced to:  18 ShMem   1 Linda.
 NMat=     1 NSing=     0 JSym2X= 2.
 CoulSu:  requested number of processors reduced to:  18 ShMem   1 Linda.
 NMat=     1 NSing=     0 JSym2X= 2.
 CoulSu:  requested number of processors reduced to:  18 ShMem   1 Linda.
 NMat=     1 NSing=     0 JSym2X= 2.
 CoulSu:  requested number of processors reduced to:  18 ShMem   1 Linda.
 Root      1 not converged, maximum delta is    0.006302479418478
 Excitation Energies [eV] at current iteration:
 Root      1 :    11.001119681617660   Change is   -0.000000111931549
 Root      2 :    11.001119722719470   Change is   -0.000000102474824
 Root      3 :    11.001120065291560   Change is   -0.000000064624554
 Root      4 :    11.914260296312540   Change is   -0.000000017297327
 Root      5 :    11.914260352372430   Change is   -0.000000009661482
 Root      6 :    11.914260398898190   Change is   -0.000000009711997
 Convergence on energies, max DE= 1.12D-07.
 Convergence on expansion vectors.
 ***********************************************************************
 Stability analysis using <AA,BB:AA,BB> singles matrix:
 ***********************************************************************
 1PDM for each excited state written to RWF  633
 Ground to excited state transition densities written to RWF  633

 Eigenvectors of the stability matrix:
 
 Eigenvector   1:      Triplet-T1   Eigenvalue= 0.4042837  <S**2>=2.000
      23 -> 26         0.20229
      24 -> 26         0.48160
      24 -> 33        -0.13310
      25 -> 26         0.34117
 
 Eigenvector   2:      Triplet-T1   Eigenvalue= 0.4042837  <S**2>=2.000
      23 -> 26        -0.31821
      24 -> 26         0.39275
      24 -> 33        -0.10854
      25 -> 26        -0.36572
      25 -> 33         0.10108
 
 Eigenvector   3:      Triplet-T1   Eigenvalue= 0.4042837  <S**2>=2.000
      21 -> 28         0.10051
      23 -> 26         0.49707
      23 -> 33        -0.13738
      25 -> 26        -0.37297
      25 -> 33         0.10308
 
 Eigenvector   4:      Singlet-T1   Eigenvalue= 0.4378410  <S**2>=0.000
      25 -> 26         0.65670
      25 -> 33        -0.11599
 
 Eigenvector   5:      Singlet-T1   Eigenvalue= 0.4378410  <S**2>=0.000
      23 -> 26        -0.27815
      24 -> 26         0.59784
      24 -> 33        -0.10559
 
 Eigenvector   6:      Singlet-T1   Eigenvalue= 0.4378410  <S**2>=0.000
      23 -> 26         0.59604
      23 -> 33        -0.10528
      24 -> 26         0.28417
 The wavefunction is stable under the perturbations considered.
 Leave Link  914 at Sat Apr 17 00:58:30 2021, MaxMem=   104857600 cpu:           39808.2 elap:             968.3
 (Enter /s/ls4/users/knvvv/bin/g16sse/l508.exe)
 The wavefunction is already stable.
 Leave Link  508 at Sat Apr 17 00:58:31 2021, MaxMem=   104857600 cpu:               2.2 elap:               0.1
 (Enter /s/ls4/users/knvvv/bin/g16sse/l601.exe)
 Copying SCF densities to generalized density rwf, IOpCl= 0 IROHF=0.

 **********************************************************************

            Population analysis using the SCF density.

 **********************************************************************

 Orbital symmetries:
       Occupied  (A1) (T2) (T2) (T2) (A1) (A1) (T2) (T2) (T2) (A1)
                 (T2) (T2) (T2) (A1) (T2) (T2) (T2) (E) (E) (T2)
                 (T2) (T2) (T1) (T1) (T1)
       Virtual   (A1) (T2) (T2) (T2) (T2) (T2) (T2) (A1) (T2) (T2)
                 (T2) (E) (E) (A1) (T2) (T2) (T2) (T1) (T1) (T1)
                 (E) (E) (T2) (T2) (T2) (T2) (T2) (T2) (E) (E)
                 (T2) (T2) (T2) (A1) (T1) (T1) (T1) (A1) (T2) (T2)
                 (T2) (T2) (T2) (T2) (A1) (E) (E) (T1) (T1) (T1)
                 (E) (E) (T2) (T2) (T2) (T1) (T1) (T1) (T2) (T2)
                 (T2) (T2) (T2) (T2) (T1) (T1) (T1) (E) (E) (A1)
                 (T2) (T2) (T2) (T2) (T2) (T2) (A1) (T1) (T1) (T1)
                 (T2) (T2) (T2) (E) (E) (T2) (T2) (T2) (E) (E)
                 (A1) (T1) (T1) (T1) (T2) (T2) (T2) (A1) (T2) (T2)
                 (T2) (A1) (A2) (T1) (T1) (T1) (T2) (T2) (T2) (A1)
                 (E) (E) (T2) (T2) (T2) (T2) (T2) (T2) (T1) (T1)
                 (T1) (A1) (T2) (T2) (T2) (E) (E) (T2) (T2) (T2)
                 (T1) (T1) (T1) (T1) (T1) (T1) (E) (E) (T2) (T2)
                 (T2) (A1) (E) (E) (T2) (T2) (T2) (T2) (T2) (T2)
                 (T1) (T1) (T1) (E) (E) (T1) (T1) (T1) (T2) (T2)
                 (T2) (E) (E) (A1) (T2) (T2) (T2) (T2) (T2) (T2)
                 (A1) (T2) (T2) (T2) (T1) (T1) (T1) (A2) (T2) (T2)
                 (T2) (T2) (T2) (T2) (E) (E) (T1) (T1) (T1) (A1)
                 (T1) (T1) (T1) (T2) (T2) (T2) (E) (E) (T2) (T2)
                 (T2) (E) (E) (T1) (T1) (T1) (A1) (T2) (T2) (T2)
                 (A2) (T1) (T1) (T1) (T2) (T2) (T2) (A1) (T2) (T2)
                 (T2) (T1) (T1) (T1) (A1) (E) (E) (T2) (T2) (T2)
                 (E) (E) (T2) (T2) (T2) (T1) (T1) (T1) (A1) (T2)
                 (T2) (T2) (T1) (T1) (T1) (E) (E) (T2) (T2) (T2)
                 (T1) (T1) (T1) (T2) (T2) (T2) (E) (E) (A1) (T2)
                 (T2) (T2) (A1) (A1) (T2) (T2) (T2) (A1) (A1) (T2)
                 (T2) (T2) (A1)
 The electronic state is 1-A1.
 Alpha  occ. eigenvalues --  -67.16051 -25.28315 -25.28315 -25.28315 -25.28314
 Alpha  occ. eigenvalues --   -5.68524  -3.99940  -3.99940  -3.99940  -1.40987
 Alpha  occ. eigenvalues --   -1.37571  -1.37571  -1.37571  -0.72070  -0.64852
 Alpha  occ. eigenvalues --   -0.64852  -0.64852  -0.59790  -0.59790  -0.58564
 Alpha  occ. eigenvalues --   -0.58564  -0.58564  -0.55262  -0.55262  -0.55262
 Alpha virt. eigenvalues --    0.03016   0.06585   0.06585   0.06585   0.19551
 Alpha virt. eigenvalues --    0.19551   0.19551   0.22215   0.25491   0.25491
 Alpha virt. eigenvalues --    0.25491   0.30411   0.30411   0.35115   0.40909
 Alpha virt. eigenvalues --    0.40909   0.40909   0.45144   0.45144   0.45144
 Alpha virt. eigenvalues --    0.47727   0.47727   0.52723   0.52723   0.52723
 Alpha virt. eigenvalues --    0.64659   0.64659   0.64659   0.68965   0.68965
 Alpha virt. eigenvalues --    0.74027   0.74027   0.74027   0.75323   0.81219
 Alpha virt. eigenvalues --    0.81219   0.81219   0.96914   1.05665   1.05665
 Alpha virt. eigenvalues --    1.05665   1.11811   1.11811   1.11811   1.18836
 Alpha virt. eigenvalues --    1.38760   1.38760   1.45682   1.45682   1.45682
 Alpha virt. eigenvalues --    1.58262   1.58262   1.61620   1.61620   1.61620
 Alpha virt. eigenvalues --    1.66953   1.66953   1.66953   1.72292   1.72292
 Alpha virt. eigenvalues --    1.72292   1.77309   1.77309   1.77309   1.81891
 Alpha virt. eigenvalues --    1.81891   1.81891   1.84403   1.84403   1.85454
 Alpha virt. eigenvalues --    1.86078   1.86078   1.86078   1.99199   1.99199
 Alpha virt. eigenvalues --    1.99199   2.12749   2.20365   2.20365   2.20365
 Alpha virt. eigenvalues --    2.28419   2.28419   2.28419   2.32530   2.32530
 Alpha virt. eigenvalues --    2.61287   2.61287   2.61287   2.70336   2.70336
 Alpha virt. eigenvalues --    2.81129   2.93073   2.93073   2.93073   2.95534
 Alpha virt. eigenvalues --    2.95534   2.95534   3.04693   3.52175   3.52175
 Alpha virt. eigenvalues --    3.52175   3.77147   4.12570   4.13431   4.13431
 Alpha virt. eigenvalues --    4.13431   4.15127   4.15127   4.15127   4.32149
 Alpha virt. eigenvalues --    4.32823   4.32823   4.35585   4.35585   4.35585
 Alpha virt. eigenvalues --    4.38693   4.38693   4.38693   4.45363   4.45363
 Alpha virt. eigenvalues --    4.45363   4.54008   4.67349   4.67349   4.67349
 Alpha virt. eigenvalues --    4.80309   4.80309   4.95808   4.95808   4.95808
 Alpha virt. eigenvalues --    5.08043   5.08043   5.08043   5.15448   5.15448
 Alpha virt. eigenvalues --    5.15448   5.32357   5.32357   5.32469   5.32469
 Alpha virt. eigenvalues --    5.32469   5.54232   5.57407   5.57407   5.64440
 Alpha virt. eigenvalues --    5.64440   5.64440   5.75662   5.75662   5.75662
 Alpha virt. eigenvalues --    5.84142   5.84142   5.84142   6.08956   6.08956
 Alpha virt. eigenvalues --    6.34481   6.34481   6.34481   6.55916   6.55916
 Alpha virt. eigenvalues --    6.55916   6.66304   6.66304   6.99545   7.06999
 Alpha virt. eigenvalues --    7.06999   7.06999   7.25681   7.25681   7.25681
 Alpha virt. eigenvalues --    7.53210  11.10207  11.10207  11.10207  11.24137
 Alpha virt. eigenvalues --   11.24137  11.24137  11.25195  11.27050  11.27050
 Alpha virt. eigenvalues --   11.27050  11.27995  11.27995  11.27995  11.28346
 Alpha virt. eigenvalues --   11.28346  11.28381  11.28381  11.28381  11.30829
 Alpha virt. eigenvalues --   11.31468  11.31468  11.31468  11.31504  11.31504
 Alpha virt. eigenvalues --   11.31504  11.32485  11.32485  11.37909  11.37909
 Alpha virt. eigenvalues --   11.37909  11.37980  11.37980  11.44741  11.44741
 Alpha virt. eigenvalues --   11.44741  11.49836  12.59721  12.59721  12.59721
 Alpha virt. eigenvalues --   14.37047  14.37400  14.37400  14.37400  14.40414
 Alpha virt. eigenvalues --   14.40414  14.40414  14.45473  14.51557  14.51557
 Alpha virt. eigenvalues --   14.51557  14.51689  14.51689  14.51689  14.63417
 Alpha virt. eigenvalues --   14.63959  14.63959  14.76152  14.76152  14.76152
 Alpha virt. eigenvalues --   14.82068  14.82068  14.91797  14.91797  14.91797
 Alpha virt. eigenvalues --   15.03747  15.03747  15.03747  15.43276  15.65604
 Alpha virt. eigenvalues --   15.65604  15.65604  15.69848  15.69848  15.69848
 Alpha virt. eigenvalues --   15.73923  15.73923  15.83024  15.83024  15.83024
 Alpha virt. eigenvalues --   16.01664  16.01664  16.01664  16.17779  16.17779
 Alpha virt. eigenvalues --   16.17779  16.21870  16.21870  16.31375  16.42768
 Alpha virt. eigenvalues --   16.42768  16.42768  17.27497  54.21672  54.44677
 Alpha virt. eigenvalues --   54.44677  54.44677  58.49485 283.15000 283.36451
 Alpha virt. eigenvalues --  283.36451 283.36451 315.90421
          Condensed to atoms (all electrons):
               1          2          3          4          5
     1  Si  11.019147   0.455038   0.455038   0.455038   0.455038
     2  F    0.455038   8.870097  -0.011653  -0.011653  -0.011653
     3  F    0.455038  -0.011653   8.870097  -0.011653  -0.011653
     4  F    0.455038  -0.011653  -0.011653   8.870097  -0.011653
     5  F    0.455038  -0.011653  -0.011653  -0.011653   8.870097
 Mulliken charges:
               1
     1  Si   1.160699
     2  F   -0.290175
     3  F   -0.290175
     4  F   -0.290175
     5  F   -0.290175
 Sum of Mulliken charges =  -0.00000
 Mulliken charges with hydrogens summed into heavy atoms:
               1
     1  Si   1.160699
     2  F   -0.290175
     3  F   -0.290175
     4  F   -0.290175
     5  F   -0.290175
 Electronic spatial extent (au):  <R**2>=            392.2261
 Charge=             -0.0000 electrons
 Dipole moment (field-independent basis, Debye):
    X=             -0.0000    Y=             -0.0000    Z=              0.0000  Tot=              0.0000
 Quadrupole moment (field-independent basis, Debye-Ang):
   XX=            -32.5978   YY=            -32.5978   ZZ=            -32.5978
   XY=              0.0000   XZ=             -0.0000   YZ=             -0.0000
 Traceless Quadrupole moment (field-independent basis, Debye-Ang):
   XX=              0.0000   YY=              0.0000   ZZ=             -0.0000
   XY=              0.0000   XZ=             -0.0000   YZ=             -0.0000
 Octapole moment (field-independent basis, Debye-Ang**2):
  XXX=             -0.0000  YYY=             -0.0000  ZZZ=             -0.0000  XYY=             -0.0000
  XXY=              0.0000  XXZ=             -0.0000  XZZ=              0.0000  YZZ=             -0.0000
  YYZ=             -0.0000  XYZ=             -4.2643
 Hexadecapole moment (field-independent basis, Debye-Ang**3):
 XXXX=           -124.8062 YYYY=           -124.8062 ZZZZ=           -124.8062 XXXY=             -0.0000
 XXXZ=              0.0000 YYYX=             -0.0000 YYYZ=              0.0000 ZZZX=             -0.0000
 ZZZY=              0.0000 XXYY=            -43.3611 XXZZ=            -43.3611 YYZZ=            -43.3611
 XXYZ=             -0.0000 YYXZ=             -0.0000 ZZXY=             -0.0000
 N-N= 2.690714014306D+02 E-N=-2.181771364542D+03  KE= 6.874670014624D+02
 PrsmSu:  requested number of processors reduced to:  21 ShMem   1 Linda.
 No NMR shielding tensors so no spin-rotation constants.
 Leave Link  601 at Sat Apr 17 00:58:53 2021, MaxMem=   104857600 cpu:            1061.3 elap:              22.7
 (Enter /s/ls4/users/knvvv/bin/g16sse/l9999.exe)

 Test job not archived.
 1\1\GINC-N178\Stability\RM062X\def2QZVP\F4Si1\KNVVV\17-Apr-2021\0\\#P 
 M062X/Def2QZVP Integral=UltraFineGrid SCF=NoSymm Stable=(RExt, Opt) IO
 p(1/33=1)\\Database calculations.\\0,1\Si,0,0.,0.,0.\F,0,0.9102018599,
 -0.9102018599,0.9102018599\F,0,-0.9102018599,0.9102018599,0.9102018599
 \F,0,-0.9102018599,-0.9102018599,-0.9102018599\F,0,0.9102018599,0.9102
 018599,-0.9102018599\\Version=ES64L-G16RevA.03\State=1-A1\HF=-689.2382
 436\RMSD=1.872e-09\Dipole=0.,0.,0.\Quadrupole=0.,0.,0.,0.,0.,0.\PG=TD 
 [O(Si1),4C3(F1)]\\@


 Life may have no meaning.  Or even worse, it may have a
 meaning of which I disapprove.
                                 -- Ashleigh Brilliant
 Job cpu time:       0 days 13 hours 49 minutes 17.8 seconds.
 Elapsed time:       0 days  0 hours 19 minutes 44.2 seconds.
 File lengths (MBytes):  RWF=    356 Int=      0 D2E=      0 Chk=     22 Scr=      1
 Normal termination of Gaussian 16 at Sat Apr 17 00:58:53 2021.
