 Entering Gaussian System, Link 0=/s/ls4/users/knvvv/bin/g16sse/g16
 Input=data/database/M062X--def2-TZVP--04_Fe2_MR-TMD-BE3.gjf
 Output=data/database/M062X--def2-TZVP--04_Fe2_MR-TMD-BE3.log
 Initial command:
 /s/ls4/users/knvvv/bin/g16sse/l1.exe "/s/ls4/users/knvvv/bin/scratch/Gau-36056.inp" -scrdir="/s/ls4/users/knvvv/bin/scratch/"
 Entering Link 1 = /s/ls4/users/knvvv/bin/g16sse/l1.exe PID=     36057.
  
 Copyright (c) 1988,1990,1992,1993,1995,1998,2003,2009,2016,
            Gaussian, Inc.  All Rights Reserved.
  
 This is part of the Gaussian(R) 16 program.  It is based on
 the Gaussian(R) 09 system (copyright 2009, Gaussian, Inc.),
 the Gaussian(R) 03 system (copyright 2003, Gaussian, Inc.),
 the Gaussian(R) 98 system (copyright 1998, Gaussian, Inc.),
 the Gaussian(R) 94 system (copyright 1995, Gaussian, Inc.),
 the Gaussian 92(TM) system (copyright 1992, Gaussian, Inc.),
 the Gaussian 90(TM) system (copyright 1990, Gaussian, Inc.),
 the Gaussian 88(TM) system (copyright 1988, Gaussian, Inc.),
 the Gaussian 86(TM) system (copyright 1986, Carnegie Mellon
 University), and the Gaussian 82(TM) system (copyright 1983,
 Carnegie Mellon University). Gaussian is a federally registered
 trademark of Gaussian, Inc.
  
 This software contains proprietary and confidential information,
 including trade secrets, belonging to Gaussian, Inc.
  
 This software is provided under written license and may be
 used, copied, transmitted, or stored only in accord with that
 written license.
  
 The following legend is applicable only to US Government
 contracts under FAR:
  
                    RESTRICTED RIGHTS LEGEND
  
 Use, reproduction and disclosure by the US Government is
 subject to restrictions as set forth in subparagraphs (a)
 and (c) of the Commercial Computer Software - Restricted
 Rights clause in FAR 52.227-19.
  
 Gaussian, Inc.
 340 Quinnipiac St., Bldg. 40, Wallingford CT 06492
  
  
 ---------------------------------------------------------------
 Warning -- This program may not be used in any manner that
 competes with the business of Gaussian, Inc. or will provide
 assistance to any competitor of Gaussian, Inc.  The licensee
 of this program is prohibited from giving any competitor of
 Gaussian, Inc. access to this program.  By using this program,
 the user acknowledges that Gaussian, Inc. is engaged in the
 business of creating and licensing software in the field of
 computational chemistry and represents and warrants to the
 licensee that it is not a competitor of Gaussian, Inc. and that
 it will not use this program in any manner prohibited above.
 ---------------------------------------------------------------
  

 Cite this work as:
 Gaussian 16, Revision A.03,
 M. J. Frisch, G. W. Trucks, H. B. Schlegel, G. E. Scuseria, 
 M. A. Robb, J. R. Cheeseman, G. Scalmani, V. Barone, 
 G. A. Petersson, H. Nakatsuji, X. Li, M. Caricato, A. V. Marenich, 
 J. Bloino, B. G. Janesko, R. Gomperts, B. Mennucci, H. P. Hratchian, 
 J. V. Ortiz, A. F. Izmaylov, J. L. Sonnenberg, D. Williams-Young, 
 F. Ding, F. Lipparini, F. Egidi, J. Goings, B. Peng, A. Petrone, 
 T. Henderson, D. Ranasinghe, V. G. Zakrzewski, J. Gao, N. Rega, 
 G. Zheng, W. Liang, M. Hada, M. Ehara, K. Toyota, R. Fukuda, 
 J. Hasegawa, M. Ishida, T. Nakajima, Y. Honda, O. Kitao, H. Nakai, 
 T. Vreven, K. Throssell, J. A. Montgomery, Jr., J. E. Peralta, 
 F. Ogliaro, M. J. Bearpark, J. J. Heyd, E. N. Brothers, K. N. Kudin, 
 V. N. Staroverov, T. A. Keith, R. Kobayashi, J. Normand, 
 K. Raghavachari, A. P. Rendell, J. C. Burant, S. S. Iyengar, 
 J. Tomasi, M. Cossi, J. M. Millam, M. Klene, C. Adamo, R. Cammi, 
 J. W. Ochterski, R. L. Martin, K. Morokuma, O. Farkas, 
 J. B. Foresman, and D. J. Fox, Gaussian, Inc., Wallingford CT, 2016.
 
 ******************************************
 Gaussian 16:  ES64L-G16RevA.03 25-Dec-2016
                18-Apr-2021 
 ******************************************
 %RWF=temp12_36425,70GB
 %nprocshared=48
 Will use up to   48 processors via shared memory.
 Default route: MaxDisk=80GB
 ----------------------------------------------------------------------
 #P M062X/Def2TZVP Integral=UltraFineGrid SCF=NoSymm Stable=(RExt, Opt)
  IOp(1/33=1)
 ----------------------------------------------------------------------
 1/33=1,38=1,172=1/1;
 2/12=2,17=6,18=5,40=1/2;
 3/5=44,7=101,11=2,25=1,30=1,74=-55,75=-5/1,2,3;
 4/9=2/1;
 5/5=2,38=5/2;
 6/7=2,8=2,9=2,10=2,28=1/1;
 8/6=1,10=90,11=11/1;
 9/8=-3,42=1,46=1/14;
 5/5=2,8=3,17=40,38=5/8(-2);
 6/7=2,8=2,9=2,10=2,28=1/1;
 99/5=1,9=1/99;
 Leave Link    1 at Sun Apr 18 07:40:23 2021, MaxMem=           0 cpu:              11.0 elap:               0.2
 (Enter /s/ls4/users/knvvv/bin/g16sse/l101.exe)
 ONIOM data not found on unit 2.
 ----------------------
 Database calculations.
 ----------------------
 TstMul:  ICh=     0
 TstMul:  Mul=     9
 TstMul:  ICh=     0
 TstMul:  Mul=     9
 Symbolic Z-matrix:
 Charge =  0 Multiplicity = 9
 Fe                    0.        0.        2.02 
 Fe                    0.        0.        0. 
 
 RdStrC is calling ZToCFu for IStruc=1 NZ=     2.
 PrtBox:  NBox=     1 Levels=  1 BoxLen=    8.00 SMaxX=        3.82
          Shift=            0.000000            0.000000            0.000000
 Box      1 Number                   0 centers from      1 to      2:
 After GenITR:
 ITRead=  0  0
 MicOpt= -1 -1
 ITRead=  0  0
 MicOpt= -1 -1
 NAtoms=      2 NQM=        2 NQMF=       0 NMMI=      0 NMMIF=      0
                NMic=       0 NMicF=      0.
                    Isotopes and Nuclear Properties:
 (Nuclear quadrupole moments (NQMom) in fm**2, nuclear magnetic moments (NMagM)
  in nuclear magnetons)

  Atom         1           2
 IAtWgt=          56          56
 AtmWgt=  55.9349393  55.9349393
 NucSpn=           0           0
 AtZEff=  -0.0000000  -0.0000000
 NQMom=    0.0000000   0.0000000
 NMagM=    0.0000000   0.0000000
 AtZNuc=  26.0000000  26.0000000
 No MM parameters found.
 Leave Link  101 at Sun Apr 18 07:40:23 2021, MaxMem=   104857600 cpu:               7.0 elap:               0.2
 (Enter /s/ls4/users/knvvv/bin/g16sse/l202.exe)
                          Input orientation:                          
 ---------------------------------------------------------------------
 Center     Atomic      Atomic             Coordinates (Angstroms)
 Number     Number       Type             X           Y           Z
 ---------------------------------------------------------------------
      1         26           0        0.000000    0.000000    2.020000
      2         26           0        0.000000    0.000000    0.000000
 ---------------------------------------------------------------------
 Stoichiometry    Fe2(9)
 Framework group  D*H[C*(Fe.Fe)]
 Deg. of freedom     1
 Full point group                 D*H     NOp   8
 Largest Abelian subgroup         D2H     NOp   8
 Largest concise Abelian subgroup C2      NOp   2
                         Standard orientation:                         
 ---------------------------------------------------------------------
 Center     Atomic      Atomic             Coordinates (Angstroms)
 Number     Number       Type             X           Y           Z
 ---------------------------------------------------------------------
      1         26           0        0.000000    0.000000    1.010000
      2         26           0        0.000000    0.000000   -1.010000
 ---------------------------------------------------------------------
 Rotational constants (GHZ):           0.0000000           4.4285473           4.4285473
 Leave Link  202 at Sun Apr 18 07:40:23 2021, MaxMem=   104857600 cpu:              10.9 elap:               0.3
 (Enter /s/ls4/users/knvvv/bin/g16sse/l301.exe)
 Standard basis: def2TZVP (5D, 7F)
 Ernie: Thresh=  0.10000D-02 Tol=  0.10000D-05 Strict=F.
 There are    25 symmetry adapted cartesian basis functions of AG  symmetry.
 There are     5 symmetry adapted cartesian basis functions of B1G symmetry.
 There are    11 symmetry adapted cartesian basis functions of B2G symmetry.
 There are    11 symmetry adapted cartesian basis functions of B3G symmetry.
 There are     5 symmetry adapted cartesian basis functions of AU  symmetry.
 There are    25 symmetry adapted cartesian basis functions of B1U symmetry.
 There are    11 symmetry adapted cartesian basis functions of B2U symmetry.
 There are    11 symmetry adapted cartesian basis functions of B3U symmetry.
 There are    20 symmetry adapted basis functions of AG  symmetry.
 There are     5 symmetry adapted basis functions of B1G symmetry.
 There are    10 symmetry adapted basis functions of B2G symmetry.
 There are    10 symmetry adapted basis functions of B3G symmetry.
 There are     5 symmetry adapted basis functions of AU  symmetry.
 There are    20 symmetry adapted basis functions of B1U symmetry.
 There are    10 symmetry adapted basis functions of B2U symmetry.
 There are    10 symmetry adapted basis functions of B3U symmetry.
    90 basis functions,   204 primitive gaussians,   104 cartesian basis functions
    30 alpha electrons       22 beta electrons
       nuclear repulsion energy       177.0909874168 Hartrees.
 IExCor= 4336 DFT=T Ex+Corr=M062X ExCW=0 ScaHFX=  0.540000
 ScaDFX=  1.000000  1.000000  1.000000  1.000000 ScalE2=  1.000000  1.000000
 IRadAn=      5 IRanWt=     -1 IRanGd=            0 ICorTp=0 IEmpDi=  4
 NAtoms=    2 NActive=    2 NUniq=    1 SFac= 4.00D+00 NAtFMM=   60 NAOKFM=F Big=F
 Integral buffers will be    131072 words long.
 Raffenetti 2 integral format.
 Two-electron integral symmetry is turned on.
 Leave Link  301 at Sun Apr 18 07:40:23 2021, MaxMem=   104857600 cpu:               6.5 elap:               0.2
 (Enter /s/ls4/users/knvvv/bin/g16sse/l302.exe)
 NPDir=0 NMtPBC=     1 NCelOv=     1 NCel=       1 NClECP=     1 NCelD=      1
         NCelK=      1 NCelE2=     1 NClLst=     1 CellRange=     0.0.
 One-electron integrals computed using PRISM.
 One-electron integral symmetry used in STVInt
 PrsmSu:  requested number of processors reduced to:  13 ShMem   1 Linda.
   8 Symmetry operations used in ECPInt.
 ECPInt:  NShTT=     465 NPrTT=    2746 LenC2=     461 LenP2D=    2222.
 LDataN:  DoStor=T MaxTD1= 6 Len=  172
 NBasis=    90 RedAO= T EigKep=  3.14D-03  NBF=    20     5    10    10     5    20    10    10
 NBsUse=    90 1.00D-06 EigRej= -1.00D+00 NBFU=    20     5    10    10     5    20    10    10
 Precomputing XC quadrature grid using
 IXCGrd= 4 IRadAn=           5 IRanWt=          -1 IRanGd=           0 AccXCQ= 0.00D+00.
 Generated NRdTot=       0 NPtTot=           0 NUsed=           0 NTot=          32
 NSgBfM=   102   102   102   102   102 MxSgAt=     2 MxSgA2=     2.
 Leave Link  302 at Sun Apr 18 07:40:28 2021, MaxMem=   104857600 cpu:             197.6 elap:               4.2
 (Enter /s/ls4/users/knvvv/bin/g16sse/l303.exe)
 DipDrv:  MaxL=1.
 Leave Link  303 at Sun Apr 18 07:40:28 2021, MaxMem=   104857600 cpu:              10.4 elap:               0.3
 (Enter /s/ls4/users/knvvv/bin/g16sse/l401.exe)
 SCF N**3 symmetry information disabled.
 ExpMin= 4.20D-02 ExpMax= 3.01D+05 ExpMxC= 2.91D+03 IAcc=3 IRadAn=         5 AccDes= 0.00D+00
 Harris functional with IExCor= 1009 and IRadAn=       5 diagonalized for initial guess.
 HarFok:  IExCor= 1009 AccDes= 0.00D+00 IRadAn=         5 IDoV= 1 UseB2=F ITyADJ=14
 ICtDFT=  3500011 ScaDFX=  1.000000  1.000000  1.000000  1.000000
 FoFCou: FMM=F IPFlag=           0 FMFlag=      100000 FMFlg1=           0
         NFxFlg=           0 DoJE=T BraDBF=F KetDBF=T FulRan=T
         wScrn=  0.000000 ICntrl=       500 IOpCl=  0 I1Cent=   200000004 NGrid=           0
         NMat0=    1 NMatS0=      1 NMatT0=    0 NMatD0=    1 NMtDS0=    0 NMtDT0=    0
 Petite list used in FoFCou.
 Harris En= -2526.61108151420    
 JPrj=0 DoOrth=F DoCkMO=F.
 Initial guess orbital symmetries:
 Alpha Orbitals:
       Occupied  (SGU) (SGG) (SGU) (SGG) (SGU) (SGG) (PIG) (PIG)
                 (PIU) (PIU) (SGG) (SGU) (SGG) (PIU) (PIU) (SGU)
                 (PIG) (PIG) (SGG) (PIU) (PIU) (DLTG) (DLTG) (SGG)
                 (DLTU) (DLTU) (PIG) (PIG) (SGU) (SGU)
       Virtual   (PIU) (PIU) (SGG) (PIG) (PIG) (SGG) (SGU) (DLTG)
                 (DLTG) (SGU) (PIU) (PIU) (DLTU) (DLTU) (SGG) (PIG)
                 (PIG) (SGU) (PIU) (PIU) (DLTG) (DLTG) (SGG) (DLTU)
                 (DLTU) (PIG) (PIG) (SGU) (PIU) (PIU) (SGG) (PIG)
                 (PIG) (SGU) (SGG) (SGU) (PIG) (PIG) (DLTG) (DLTG)
                 (SGG) (DLTU) (DLTU) (PIU) (PIU) (SGU) (PIU) (PIU)
                 (DLTG) (DLTG) (DLTU) (DLTU) (PHIU) (PHIU) (PHIG)
                 (PHIG) (SGG) (PIG) (PIG) (SGU)
 Beta  Orbitals:
       Occupied  (SGU) (SGG) (SGU) (SGG) (SGU) (SGG) (PIG) (PIG)
                 (PIU) (PIU) (SGG) (SGU) (SGG) (PIU) (PIU) (SGU)
                 (PIG) (PIG) (SGG) (PIU) (PIU) (DLTG)
       Virtual   (DLTG) (SGG) (DLTU) (DLTU) (PIG) (PIG) (SGU) (SGU)
                 (PIU) (PIU) (SGG) (PIG) (PIG) (SGG) (SGU) (DLTG)
                 (DLTG) (SGU) (PIU) (PIU) (DLTU) (DLTU) (SGG) (PIG)
                 (PIG) (SGU) (PIU) (PIU) (DLTG) (DLTG) (SGG) (DLTU)
                 (DLTU) (PIG) (PIG) (SGU) (PIU) (PIU) (SGG) (PIG)
                 (PIG) (SGU) (SGG) (SGU) (PIG) (PIG) (DLTG) (DLTG)
                 (SGG) (DLTU) (DLTU) (PIU) (PIU) (SGU) (PIU) (PIU)
                 (DLTG) (DLTG) (DLTU) (DLTU) (PHIU) (PHIU) (PHIG)
                 (PHIG) (SGG) (PIG) (PIG) (SGU)
 Initial guess <Sx>= 0.0000 <Sy>= 0.0000 <Sz>= 4.0000 <S**2>=20.0000 S= 4.0000
 Leave Link  401 at Sun Apr 18 07:40:30 2021, MaxMem=   104857600 cpu:             105.7 elap:               2.3
 (Enter /s/ls4/users/knvvv/bin/g16sse/l502.exe)
 Keep R1 and R2 ints in memory in symmetry-blocked form, NReq=53041958.
 FoFCou: FMM=F IPFlag=           0 FMFlag=           0 FMFlg1=           0
         NFxFlg=           0 DoJE=F BraDBF=F KetDBF=F FulRan=T
         wScrn=  0.000000 ICntrl=       600 IOpCl=  0 I1Cent=           0 NGrid=           0
         NMat0=    1 NMatS0=   4095 NMatT0=    0 NMatD0=    1 NMtDS0=    0 NMtDT0=    0
 Petite list used in FoFCou.
 UHF open shell SCF:
 Using DIIS extrapolation, IDIIS=  1040.
 NGot=   104857600 LenX=   102651682 LenY=   102640425
 Requested convergence on RMS density matrix=1.00D-08 within 128 cycles.
 Requested convergence on MAX density matrix=1.00D-06.
 Requested convergence on             energy=1.00D-06.
 No special actions if energy rises.

 Cycle   1  Pass 1  IDiag  1:
 E= -2527.00770176847    
 DIIS: error= 4.10D-02 at cycle   1 NSaved=   1.
 NSaved= 1 IEnMin= 1 EnMin= -2527.00770176847     IErMin= 1 ErrMin= 4.10D-02
 ErrMax= 4.10D-02  0.00D+00 EMaxC= 1.00D-01 BMatC= 4.71D-01 BMatP= 4.71D-01
 IDIUse=3 WtCom= 5.90D-01 WtEn= 4.10D-01
 Coeff-Com:  0.100D+01
 Coeff-En:   0.100D+01
 Coeff:      0.100D+01
 Gap=     0.191 Goal=   None    Shift=    0.000
 Gap=     0.248 Goal=   None    Shift=    0.000
 GapD=    0.191 DampG=1.000 DampE=0.250 DampFc=0.2500 IDamp=-1.
 Damping current iteration by 2.50D-01
 RMSDP=7.15D-03 MaxDP=2.50D-01              OVMax= 4.39D-01

 Cycle   2  Pass 1  IDiag  1:
 E= -2527.02903178280     Delta-E=       -0.021330014331 Rises=F Damp=T
 DIIS: error= 3.08D-02 at cycle   2 NSaved=   2.
 NSaved= 2 IEnMin= 2 EnMin= -2527.02903178280     IErMin= 2 ErrMin= 3.08D-02
 ErrMax= 3.08D-02  0.00D+00 EMaxC= 1.00D-01 BMatC= 2.77D-01 BMatP= 4.71D-01
 IDIUse=3 WtCom= 6.92D-01 WtEn= 3.08D-01
 Coeff-Com: -0.129D+01 0.229D+01
 Coeff-En:   0.000D+00 0.100D+01
 Coeff:     -0.892D+00 0.189D+01
 Gap=     0.190 Goal=   None    Shift=    0.000
 Gap=     0.042 Goal=   None    Shift=    0.000
 RMSDP=5.48D-03 MaxDP=1.57D-01 DE=-2.13D-02 OVMax= 1.19D-01

 Cycle   3  Pass 1  IDiag  1:
 E= -2527.12072240362     Delta-E=       -0.091690620815 Rises=F Damp=F
 DIIS: error= 1.57D-02 at cycle   3 NSaved=   3.
 NSaved= 3 IEnMin= 3 EnMin= -2527.12072240362     IErMin= 3 ErrMin= 1.57D-02
 ErrMax= 1.57D-02  0.00D+00 EMaxC= 1.00D-01 BMatC= 4.90D-02 BMatP= 2.77D-01
 IDIUse=3 WtCom= 8.43D-01 WtEn= 1.57D-01
 Coeff-Com: -0.527D+00 0.788D+00 0.739D+00
 Coeff-En:   0.000D+00 0.000D+00 0.100D+01
 Coeff:     -0.445D+00 0.664D+00 0.780D+00
 Gap=     0.186 Goal=   None    Shift=    0.000
 Gap=     0.099 Goal=   None    Shift=    0.000
 RMSDP=2.07D-03 MaxDP=5.75D-02 DE=-9.17D-02 OVMax= 1.63D-01

 Cycle   4  Pass 1  IDiag  1:
 E= -2527.14369779657     Delta-E=       -0.022975392952 Rises=F Damp=F
 DIIS: error= 9.13D-03 at cycle   4 NSaved=   4.
 NSaved= 4 IEnMin= 4 EnMin= -2527.14369779657     IErMin= 4 ErrMin= 9.13D-03
 ErrMax= 9.13D-03  0.00D+00 EMaxC= 1.00D-01 BMatC= 1.82D-02 BMatP= 4.90D-02
 IDIUse=3 WtCom= 9.09D-01 WtEn= 9.13D-02
 Coeff-Com:  0.342D+00-0.487D+00 0.157D+00 0.988D+00
 Coeff-En:   0.000D+00 0.000D+00 0.000D+00 0.100D+01
 Coeff:      0.311D+00-0.442D+00 0.143D+00 0.989D+00
 Gap=     0.201 Goal=   None    Shift=    0.000
 Gap=     0.172 Goal=   None    Shift=    0.000
 RMSDP=1.83D-03 MaxDP=6.38D-02 DE=-2.30D-02 OVMax= 1.10D-01

 Cycle   5  Pass 1  IDiag  1:
 E= -2527.15459480251     Delta-E=       -0.010897005942 Rises=F Damp=F
 DIIS: error= 4.47D-03 at cycle   5 NSaved=   5.
 NSaved= 5 IEnMin= 5 EnMin= -2527.15459480251     IErMin= 5 ErrMin= 4.47D-03
 ErrMax= 4.47D-03  0.00D+00 EMaxC= 1.00D-01 BMatC= 2.23D-03 BMatP= 1.82D-02
 IDIUse=3 WtCom= 9.55D-01 WtEn= 4.47D-02
 Coeff-Com:  0.218D+00-0.304D+00-0.181D+00 0.738D-01 0.119D+01
 Coeff-En:   0.000D+00 0.000D+00 0.000D+00 0.000D+00 0.100D+01
 Coeff:      0.209D+00-0.290D+00-0.173D+00 0.705D-01 0.118D+01
 Gap=     0.210 Goal=   None    Shift=    0.000
 Gap=     0.140 Goal=   None    Shift=    0.000
 RMSDP=1.09D-03 MaxDP=3.92D-02 DE=-1.09D-02 OVMax= 9.77D-02

 Cycle   6  Pass 1  IDiag  1:
 E= -2527.15884957027     Delta-E=       -0.004254767763 Rises=F Damp=F
 DIIS: error= 2.47D-03 at cycle   6 NSaved=   6.
 NSaved= 6 IEnMin= 6 EnMin= -2527.15884957027     IErMin= 6 ErrMin= 2.47D-03
 ErrMax= 2.47D-03  0.00D+00 EMaxC= 1.00D-01 BMatC= 1.26D-03 BMatP= 2.23D-03
 IDIUse=3 WtCom= 9.75D-01 WtEn= 2.47D-02
 Coeff-Com:  0.198D+00-0.261D+00-0.900D-03 0.619D-01-0.726D-01 0.107D+01
 Coeff-En:   0.000D+00 0.000D+00 0.000D+00 0.000D+00 0.000D+00 0.100D+01
 Coeff:      0.194D+00-0.254D+00-0.878D-03 0.604D-01-0.709D-01 0.107D+01
 Gap=     0.212 Goal=   None    Shift=    0.000
 Gap=     0.147 Goal=   None    Shift=    0.000
 RMSDP=6.47D-04 MaxDP=3.01D-02 DE=-4.25D-03 OVMax= 4.05D-02

 Cycle   7  Pass 1  IDiag  1:
 E= -2527.15964124590     Delta-E=       -0.000791675630 Rises=F Damp=F
 DIIS: error= 1.16D-03 at cycle   7 NSaved=   7.
 NSaved= 7 IEnMin= 7 EnMin= -2527.15964124590     IErMin= 7 ErrMin= 1.16D-03
 ErrMax= 1.16D-03  0.00D+00 EMaxC= 1.00D-01 BMatC= 1.95D-04 BMatP= 1.26D-03
 IDIUse=3 WtCom= 9.88D-01 WtEn= 1.16D-02
 Coeff-Com: -0.301D-02 0.653D-02 0.595D-01 0.183D-01-0.252D+00-0.887D-01
 Coeff-Com:  0.126D+01
 Coeff-En:   0.000D+00 0.000D+00 0.000D+00 0.000D+00 0.000D+00 0.000D+00
 Coeff-En:   0.100D+01
 Coeff:     -0.298D-02 0.645D-02 0.588D-01 0.181D-01-0.249D+00-0.877D-01
 Coeff:      0.126D+01
 Gap=     0.213 Goal=   None    Shift=    0.000
 Gap=     0.130 Goal=   None    Shift=    0.000
 RMSDP=6.01D-04 MaxDP=2.12D-02 DE=-7.92D-04 OVMax= 3.28D-02

 Cycle   8  Pass 1  IDiag  1:
 E= -2527.15995457021     Delta-E=       -0.000313324311 Rises=F Damp=F
 DIIS: error= 6.35D-04 at cycle   8 NSaved=   8.
 NSaved= 8 IEnMin= 8 EnMin= -2527.15995457021     IErMin= 8 ErrMin= 6.35D-04
 ErrMax= 6.35D-04  0.00D+00 EMaxC= 1.00D-01 BMatC= 6.54D-05 BMatP= 1.95D-04
 IDIUse=3 WtCom= 9.94D-01 WtEn= 6.35D-03
 Coeff-Com:  0.246D-02-0.248D-02-0.103D-01 0.412D-03 0.400D-01-0.293D+00
 Coeff-Com:  0.274D+00 0.989D+00
 Coeff-En:   0.000D+00 0.000D+00 0.000D+00 0.000D+00 0.000D+00 0.000D+00
 Coeff-En:   0.000D+00 0.100D+01
 Coeff:      0.244D-02-0.246D-02-0.103D-01 0.409D-03 0.398D-01-0.291D+00
 Coeff:      0.272D+00 0.989D+00
 Gap=     0.214 Goal=   None    Shift=    0.000
 Gap=     0.135 Goal=   None    Shift=    0.000
 RMSDP=2.02D-04 MaxDP=8.45D-03 DE=-3.13D-04 OVMax= 1.45D-02

 Cycle   9  Pass 1  IDiag  1:
 E= -2527.16001614562     Delta-E=       -0.000061575410 Rises=F Damp=F
 DIIS: error= 1.98D-04 at cycle   9 NSaved=   9.
 NSaved= 9 IEnMin= 9 EnMin= -2527.16001614562     IErMin= 9 ErrMin= 1.98D-04
 ErrMax= 1.98D-04  0.00D+00 EMaxC= 1.00D-01 BMatC= 4.31D-06 BMatP= 6.54D-05
 IDIUse=3 WtCom= 9.98D-01 WtEn= 1.98D-03
 Coeff-Com:  0.191D-03-0.253D-03-0.793D-02 0.697D-02 0.293D-01-0.814D-02
 Coeff-Com: -0.145D+00-0.118D+00 0.124D+01
 Coeff-En:   0.000D+00 0.000D+00 0.000D+00 0.000D+00 0.000D+00 0.000D+00
 Coeff-En:   0.000D+00 0.000D+00 0.100D+01
 Coeff:      0.190D-03-0.252D-03-0.792D-02 0.696D-02 0.293D-01-0.813D-02
 Coeff:     -0.145D+00-0.118D+00 0.124D+01
 Gap=     0.214 Goal=   None    Shift=    0.000
 Gap=     0.135 Goal=   None    Shift=    0.000
 RMSDP=6.84D-05 MaxDP=1.99D-03 DE=-6.16D-05 OVMax= 6.45D-03

 Cycle  10  Pass 1  IDiag  1:
 E= -2527.16002600466     Delta-E=       -0.000009859034 Rises=F Damp=F
 DIIS: error= 7.69D-05 at cycle  10 NSaved=  10.
 NSaved=10 IEnMin=10 EnMin= -2527.16002600466     IErMin=10 ErrMin= 7.69D-05
 ErrMax= 7.69D-05  0.00D+00 EMaxC= 1.00D-01 BMatC= 6.23D-07 BMatP= 4.31D-06
 IDIUse=1 WtCom= 1.00D+00 WtEn= 0.00D+00
 Coeff-Com:  0.193D-03-0.216D-03-0.211D-03-0.345D-02 0.738D-02 0.117D-01
 Coeff-Com: -0.521D-02-0.781D-01-0.240D+00 0.131D+01
 Coeff:      0.193D-03-0.216D-03-0.211D-03-0.345D-02 0.738D-02 0.117D-01
 Coeff:     -0.521D-02-0.781D-01-0.240D+00 0.131D+01
 Gap=     0.214 Goal=   None    Shift=    0.000
 Gap=     0.136 Goal=   None    Shift=    0.000
 RMSDP=2.35D-05 MaxDP=6.19D-04 DE=-9.86D-06 OVMax= 2.51D-03

 Cycle  11  Pass 1  IDiag  1:
 E= -2527.16002740105     Delta-E=       -0.000001396388 Rises=F Damp=F
 DIIS: error= 1.71D-05 at cycle  11 NSaved=  11.
 NSaved=11 IEnMin=11 EnMin= -2527.16002740105     IErMin=11 ErrMin= 1.71D-05
 ErrMax= 1.71D-05  0.00D+00 EMaxC= 1.00D-01 BMatC= 5.51D-08 BMatP= 6.23D-07
 IDIUse=1 WtCom= 1.00D+00 WtEn= 0.00D+00
 Coeff-Com:  0.886D-03-0.117D-02-0.792D-05-0.331D-03-0.118D-02 0.126D-02
 Coeff-Com:  0.290D-02 0.368D-01-0.116D+00-0.202D+00 0.128D+01
 Coeff:      0.886D-03-0.117D-02-0.792D-05-0.331D-03-0.118D-02 0.126D-02
 Coeff:      0.290D-02 0.368D-01-0.116D+00-0.202D+00 0.128D+01
 Gap=     0.214 Goal=   None    Shift=    0.000
 Gap=     0.136 Goal=   None    Shift=    0.000
 RMSDP=9.99D-06 MaxDP=4.03D-04 DE=-1.40D-06 OVMax= 8.02D-04

 Cycle  12  Pass 1  IDiag  1:
 E= -2527.16002753509     Delta-E=       -0.000000134046 Rises=F Damp=F
 DIIS: error= 1.01D-05 at cycle  12 NSaved=  12.
 NSaved=12 IEnMin=12 EnMin= -2527.16002753509     IErMin=12 ErrMin= 1.01D-05
 ErrMax= 1.01D-05  0.00D+00 EMaxC= 1.00D-01 BMatC= 1.61D-08 BMatP= 5.51D-08
 IDIUse=1 WtCom= 1.00D+00 WtEn= 0.00D+00
 Coeff-Com: -0.137D-03 0.154D-03-0.200D-03 0.769D-03-0.319D-04 0.257D-03
 Coeff-Com: -0.494D-02 0.968D-02 0.255D-01-0.100D+00-0.413D-01 0.111D+01
 Coeff:     -0.137D-03 0.154D-03-0.200D-03 0.769D-03-0.319D-04 0.257D-03
 Coeff:     -0.494D-02 0.968D-02 0.255D-01-0.100D+00-0.413D-01 0.111D+01
 Gap=     0.214 Goal=   None    Shift=    0.000
 Gap=     0.136 Goal=   None    Shift=    0.000
 RMSDP=3.93D-06 MaxDP=1.86D-04 DE=-1.34D-07 OVMax= 9.53D-05

 Cycle  13  Pass 1  IDiag  1:
 E= -2527.16002754406     Delta-E=       -0.000000008971 Rises=F Damp=F
 DIIS: error= 1.41D-06 at cycle  13 NSaved=  13.
 NSaved=13 IEnMin=13 EnMin= -2527.16002754406     IErMin=13 ErrMin= 1.41D-06
 ErrMax= 1.41D-06  0.00D+00 EMaxC= 1.00D-01 BMatC= 2.90D-10 BMatP= 1.61D-08
 IDIUse=1 WtCom= 1.00D+00 WtEn= 0.00D+00
 Coeff-Com: -0.145D-04 0.218D-04 0.103D-04-0.707D-04 0.602D-05-0.371D-04
 Coeff-Com:  0.294D-03-0.208D-02 0.594D-02-0.410D-02-0.420D-01-0.630D-01
 Coeff-Com:  0.111D+01
 Coeff:     -0.145D-04 0.218D-04 0.103D-04-0.707D-04 0.602D-05-0.371D-04
 Coeff:      0.294D-03-0.208D-02 0.594D-02-0.410D-02-0.420D-01-0.630D-01
 Coeff:      0.111D+01
 Gap=     0.214 Goal=   None    Shift=    0.000
 Gap=     0.136 Goal=   None    Shift=    0.000
 RMSDP=6.52D-07 MaxDP=2.40D-05 DE=-8.97D-09 OVMax= 4.05D-05

 Cycle  14  Pass 1  IDiag  1:
 E= -2527.16002754444     Delta-E=       -0.000000000378 Rises=F Damp=F
 DIIS: error= 3.91D-07 at cycle  14 NSaved=  14.
 NSaved=14 IEnMin=14 EnMin= -2527.16002754444     IErMin=14 ErrMin= 3.91D-07
 ErrMax= 3.91D-07  0.00D+00 EMaxC= 1.00D-01 BMatC= 2.18D-11 BMatP= 2.90D-10
 IDIUse=1 WtCom= 1.00D+00 WtEn= 0.00D+00
 Coeff-Com: -0.993D-05 0.131D-04 0.351D-05 0.135D-04-0.283D-04-0.132D-03
 Coeff-Com:  0.394D-03 0.839D-05-0.240D-02 0.548D-02 0.197D-02-0.128D-01
 Coeff-Com: -0.125D+00 0.113D+01
 Coeff:     -0.993D-05 0.131D-04 0.351D-05 0.135D-04-0.283D-04-0.132D-03
 Coeff:      0.394D-03 0.839D-05-0.240D-02 0.548D-02 0.197D-02-0.128D-01
 Coeff:     -0.125D+00 0.113D+01
 Gap=     0.214 Goal=   None    Shift=    0.000
 Gap=     0.136 Goal=   None    Shift=    0.000
 RMSDP=6.79D-08 MaxDP=1.85D-06 DE=-3.78D-10 OVMax= 1.19D-06

 Cycle  15  Pass 1  IDiag  1:
 E= -2527.16002754444     Delta-E=        0.000000000003 Rises=F Damp=F
 DIIS: error= 8.37D-08 at cycle  15 NSaved=  15.
 NSaved=15 IEnMin=14 EnMin= -2527.16002754444     IErMin=15 ErrMin= 8.37D-08
 ErrMax= 8.37D-08  0.00D+00 EMaxC= 1.00D-01 BMatC= 1.04D-12 BMatP= 2.18D-11
 IDIUse=1 WtCom= 1.00D+00 WtEn= 0.00D+00
 Coeff-Com: -0.626D-06 0.902D-06 0.159D-05-0.436D-05-0.628D-06 0.227D-04
 Coeff-Com: -0.494D-04-0.491D-04 0.714D-03-0.129D-02-0.138D-02 0.108D-01
 Coeff-Com:  0.786D-02-0.354D+00 0.134D+01
 Coeff:     -0.626D-06 0.902D-06 0.159D-05-0.436D-05-0.628D-06 0.227D-04
 Coeff:     -0.494D-04-0.491D-04 0.714D-03-0.129D-02-0.138D-02 0.108D-01
 Coeff:      0.786D-02-0.354D+00 0.134D+01
 Gap=     0.214 Goal=   None    Shift=    0.000
 Gap=     0.136 Goal=   None    Shift=    0.000
 RMSDP=2.95D-08 MaxDP=1.09D-06 DE= 3.18D-12 OVMax= 1.31D-06

 Cycle  16  Pass 1  IDiag  1:
 E= -2527.16002754444     Delta-E=       -0.000000000006 Rises=F Damp=F
 DIIS: error= 8.81D-09 at cycle  16 NSaved=  16.
 NSaved=16 IEnMin=16 EnMin= -2527.16002754444     IErMin=16 ErrMin= 8.81D-09
 ErrMax= 8.81D-09  0.00D+00 EMaxC= 1.00D-01 BMatC= 9.33D-15 BMatP= 1.04D-12
 IDIUse=1 WtCom= 1.00D+00 WtEn= 0.00D+00
 Coeff-Com: -0.244D-07 0.232D-07-0.227D-06 0.226D-06 0.790D-06-0.605D-06
 Coeff-Com:  0.235D-05 0.152D-07-0.515D-04 0.122D-03 0.192D-03-0.172D-02
 Coeff-Com:  0.204D-02 0.295D-01-0.238D+00 0.121D+01
 Coeff:     -0.244D-07 0.232D-07-0.227D-06 0.226D-06 0.790D-06-0.605D-06
 Coeff:      0.235D-05 0.152D-07-0.515D-04 0.122D-03 0.192D-03-0.172D-02
 Coeff:      0.204D-02 0.295D-01-0.238D+00 0.121D+01
 Gap=     0.214 Goal=   None    Shift=    0.000
 Gap=     0.136 Goal=   None    Shift=    0.000
 RMSDP=4.28D-09 MaxDP=1.33D-07 DE=-5.91D-12 OVMax= 3.24D-07

 SCF Done:  E(UM062X) =  -2527.16002754     A.U. after   16 cycles
            NFock= 16  Conv=0.43D-08     -V/T= 2.0012
 <Sx>= 0.0000 <Sy>= 0.0000 <Sz>= 4.0000 <S**2>=20.3462 S= 4.0383
 <L.S>= 0.000000000000E+00
 KE= 2.524076898057D+03 PE=-6.368089902563D+03 EE= 1.139761989545D+03
 Annihilation of the first spin contaminant:
 S**2 before annihilation    20.3462,   after    20.0222
 Leave Link  502 at Sun Apr 18 07:42:09 2021, MaxMem=   104857600 cpu:            4630.5 elap:              98.5
 (Enter /s/ls4/users/knvvv/bin/g16sse/l601.exe)
 Copying SCF densities to generalized density rwf, IOpCl= 1 IROHF=0.

 **********************************************************************

            Population analysis using the SCF density.

 **********************************************************************

 Orbital symmetries:
 Alpha Orbitals:
       Occupied  (SGU) (SGG) (SGU) (SGG) (SGU) (SGG) (PIG) (PIG)
                 (PIU) (PIU) (SGG) (SGU) (SGG) (PIU) (PIU) (PIG)
                 (PIG) (SGU) (SGG) (PIU) (PIU) (DLTG) (DLTG) (DLTU)
                 (DLTU) (PIG) (PIG) (SGU) (SGG) (SGU)
       Virtual   (PIU) (PIU) (SGG) (PIG) (PIG) (SGG) (SGU) (DLTG)
                 (DLTG) (SGU) (PIU) (PIU) (DLTU) (DLTU) (SGG) (PIG)
                 (PIG) (SGU) (PIU) (PIU) (DLTG) (DLTG) (DLTU) (DLTU)
                 (SGG) (PIG) (PIG) (SGU) (PIU) (PIU) (SGG) (PIG)
                 (PIG) (SGU) (SGG) (SGU) (DLTG) (PIG) (PIG) (DLTG)
                 (SGG) (DLTU) (DLTU) (PIU) (PIU) (SGU) (?A) (?A)
                 (DLTG) (?B) (?B) (?A) (?A) (DLTU) (DLTG) (SGG)
                 (DLTU) (?B) (?B) (SGU)
 Beta  Orbitals:
       Occupied  (SGU) (SGG) (SGU) (SGG) (SGG) (SGU) (PIU) (PIU)
                 (PIG) (PIG) (SGG) (SGU) (SGG) (PIU) (PIU) (PIG)
                 (PIG) (SGU) (SGG) (PIU) (PIU) (?A)
       Virtual   (SGU) (?B) (SGG) (PIG) (PIG) (SGG) (?A) (PIU)
                 (PIU) (SGU) (?B) (PIG) (PIG) (SGU) (SGG) (?A)
                 (?A) (PIU) (PIU) (SGU) (?B) (?B) (SGG) (PIG) (PIG)
                 (SGU) (PIU) (PIU) (?A) (?A) (?B) (?B) (PIG) (PIG)
                 (SGG) (SGU) (PIU) (PIU) (SGG) (PIG) (PIG) (SGU)
                 (SGG) (SGU) (PIG) (PIG) (DLTG) (SGG) (DLTG) (DLTU)
                 (PIU) (PIU) (DLTU) (SGU) (DLTG) (?C) (?C) (DLTU)
                 (DLTG) (DLTU) (?D) (?D) (?C) (?C) (SGG) (?D) (?D)
                 (SGU)
 Unable to determine electronic state:  an orbital has unidentified symmetry.
 Alpha  occ. eigenvalues -- -257.95054-257.95053 -30.68677 -30.68673 -26.53727
 Alpha  occ. eigenvalues --  -26.53721 -26.53444 -26.53444 -26.53441 -26.53441
 Alpha  occ. eigenvalues --   -3.79061  -3.78421  -2.56911  -2.54477  -2.54477
 Alpha  occ. eigenvalues --   -2.54128  -2.54128  -2.53833  -0.55194  -0.52232
 Alpha  occ. eigenvalues --   -0.52232  -0.50102  -0.48939  -0.48769  -0.47591
 Alpha  occ. eigenvalues --   -0.45787  -0.45787  -0.45697  -0.27776  -0.18966
 Alpha virt. eigenvalues --    0.02423   0.02423   0.02572   0.08871   0.08871
 Alpha virt. eigenvalues --    0.13680   0.16862   0.16938   0.17135   0.22271
 Alpha virt. eigenvalues --    0.24100   0.24100   0.25914   0.26064   0.29907
 Alpha virt. eigenvalues --    0.37494   0.37494   0.58926   0.84393   0.84393
 Alpha virt. eigenvalues --    0.85203   0.85673   0.95481   0.96175   0.97828
 Alpha virt. eigenvalues --    0.99530   0.99530   1.14659   1.66147   1.66147
 Alpha virt. eigenvalues --    1.75215   1.86567   1.86567   2.05486   2.65083
 Alpha virt. eigenvalues --    2.85331   3.44069   3.44414   3.44414   3.44971
 Alpha virt. eigenvalues --    3.45797   3.48451   3.49343   3.51873   3.51873
 Alpha virt. eigenvalues --    3.64713   4.06474   4.06474   4.07226   4.07311
 Alpha virt. eigenvalues --    4.07311   4.07394   4.07394   4.07893   4.07936
 Alpha virt. eigenvalues --    4.08203   4.08595   4.14640   4.14640   4.31041
  Beta  occ. eigenvalues -- -257.94938-257.94938 -30.58649 -30.58648 -26.45190
  Beta  occ. eigenvalues --  -26.45188 -26.45055 -26.45055 -26.45049 -26.45049
  Beta  occ. eigenvalues --   -3.60541  -3.59794  -2.33645  -2.31418  -2.31418
  Beta  occ. eigenvalues --   -2.30670  -2.30670  -2.29764  -0.28663  -0.27427
  Beta  occ. eigenvalues --   -0.27427  -0.21702
  Beta virt. eigenvalues --   -0.08142  -0.05587  -0.04143  -0.02211  -0.02211
  Beta virt. eigenvalues --   -0.01694   0.00324   0.03818   0.03818   0.04278
  Beta virt. eigenvalues --    0.05005   0.06925   0.06925   0.12067   0.14048
  Beta virt. eigenvalues --    0.17308   0.19014   0.19321   0.19321   0.20183
  Beta virt. eigenvalues --    0.21798   0.22561   0.22984   0.30611   0.30611
  Beta virt. eigenvalues --    0.57202   0.87319   0.87319   0.88403   0.88655
  Beta virt. eigenvalues --    0.97442   0.97837   1.00631   1.00631   1.02025
  Beta virt. eigenvalues --    1.12000   1.73196   1.73196   1.81401   1.93104
  Beta virt. eigenvalues --    1.93104   2.11034   2.75252   2.94830   3.56450
  Beta virt. eigenvalues --    3.56450   3.57611   3.59991   3.60095   3.61495
  Beta virt. eigenvalues --    3.63993   3.63993   3.64016   3.80240   4.18935
  Beta virt. eigenvalues --    4.19794   4.19794   4.20182   4.20675   4.21638
  Beta virt. eigenvalues --    4.21711   4.21711   4.21730   4.21730   4.22715
  Beta virt. eigenvalues --    4.28422   4.28422   4.44883
          Condensed to atoms (all electrons):
               1          2
     1  Fe  25.940831   0.059169
     2  Fe   0.059169  25.940831
          Atomic-Atomic Spin Densities.
               1          2
     1  Fe   4.680192  -0.680192
     2  Fe  -0.680192   4.680192
 Mulliken charges and spin densities:
               1          2
     1  Fe  -0.000000   4.000000
     2  Fe  -0.000000   4.000000
 Sum of Mulliken charges =  -0.00000   8.00000
 Mulliken charges and spin densities with hydrogens summed into heavy atoms:
               1          2
     1  Fe  -0.000000   4.000000
     2  Fe  -0.000000   4.000000
 Electronic spatial extent (au):  <R**2>=            264.1392
 Charge=             -0.0000 electrons
 Dipole moment (field-independent basis, Debye):
    X=             -0.0000    Y=             -0.0000    Z=             -0.0000  Tot=              0.0000
 Quadrupole moment (field-independent basis, Debye-Ang):
   XX=            -32.6114   YY=            -32.6114   ZZ=            -35.2666
   XY=             -0.0000   XZ=             -0.0000   YZ=             -0.0000
 Traceless Quadrupole moment (field-independent basis, Debye-Ang):
   XX=              0.8850   YY=              0.8850   ZZ=             -1.7701
   XY=             -0.0000   XZ=             -0.0000   YZ=             -0.0000
 Octapole moment (field-independent basis, Debye-Ang**2):
  XXX=             -0.0000  YYY=             -0.0000  ZZZ=             -0.0000  XYY=             -0.0000
  XXY=              0.0000  XXZ=             -0.0000  XZZ=             -0.0000  YZZ=             -0.0000
  YYZ=             -0.0000  XYZ=              0.0000
 Hexadecapole moment (field-independent basis, Debye-Ang**3):
 XXXX=            -60.0216 YYYY=            -60.0216 ZZZZ=           -310.1093 XXXY=             -0.0000
 XXXZ=              0.0000 YYYX=              0.0000 YYYZ=             -0.0000 ZZZX=              0.0000
 ZZZY=             -0.0000 XXYY=            -19.2056 XXZZ=            -57.8869 YYZZ=            -57.8869
 XXYZ=             -0.0000 YYXZ=              0.0000 ZZXY=              0.0000
 N-N= 1.770909874168D+02 E-N=-6.368089903210D+03  KE= 2.524076898057D+03
                          Isotropic Fermi Contact Couplings
        Atom                 a.u.       MegaHertz       Gauss      10(-4) cm-1
     1  Fe(57)             1.01170      18.34216       6.54494       6.11829
     2  Fe(57)             1.01170      18.34216       6.54494       6.11829
 --------------------------------------------------------
       Center         ----  Spin Dipole Couplings  ----
                      3XX-RR        3YY-RR        3ZZ-RR
 --------------------------------------------------------
     1   Atom       -0.377251     -0.377251      0.754503
     2   Atom       -0.377251     -0.377251      0.754503
 --------------------------------------------------------
                        XY            XZ            YZ
 --------------------------------------------------------
     1   Atom        0.000000      0.000000      0.000000
     2   Atom        0.000000      0.000000      0.000000
 --------------------------------------------------------


 ---------------------------------------------------------------------------------
              Anisotropic Spin Dipole Couplings in Principal Axis System
 ---------------------------------------------------------------------------------

       Atom             a.u.   MegaHertz   Gauss  10(-4) cm-1        Axes

              Baa    -0.3773    -6.531    -2.331    -2.179  1.0000 -0.0000 -0.0000
     1 Fe(57) Bbb    -0.3773    -6.531    -2.331    -2.179 -0.0000  1.0000 -0.0000
              Bcc     0.7545    13.063     4.661     4.357  0.0000  0.0000  1.0000
 
              Baa    -0.3773    -6.531    -2.331    -2.179  1.0000 -0.0000 -0.0000
     2 Fe(57) Bbb    -0.3773    -6.531    -2.331    -2.179 -0.0000  1.0000 -0.0000
              Bcc     0.7545    13.063     4.661     4.357  0.0000  0.0000  1.0000
 

 ---------------------------------------------------------------------------------

 No NMR shielding tensors so no spin-rotation constants.
 Leave Link  601 at Sun Apr 18 07:42:12 2021, MaxMem=   104857600 cpu:             135.7 elap:               2.9
 (Enter /s/ls4/users/knvvv/bin/g16sse/l801.exe)
 DoSCS=F DFT=T ScalE2(SS,OS)=  1.000000  1.000000
 Range of M.O.s used for correlation:     1    90
 NBasis=    90 NAE=    30 NBE=    22 NFC=     0 NFV=     0
 NROrb=     90 NOA=    30 NOB=    22 NVA=    60 NVB=    68
 Leave Link  801 at Sun Apr 18 07:42:12 2021, MaxMem=   104857600 cpu:               3.5 elap:               0.1
 (Enter /s/ls4/users/knvvv/bin/g16sse/l914.exe)
 UHF ground state
 Doing stability rather than CIS.
 Two-electron integrals replicated using symmetry.
 MDV=   104857600 DFT=T DoStab=T Mixed=T DoRPA=F DoScal=F NonHer=F
 Making orbital integer symmetry assigments:
 Orbital symmetries:
 Alpha Orbitals:
       Occupied  (SGU) (SGG) (SGU) (SGG) (SGU) (SGG) (PIG) (PIG)
                 (PIU) (PIU) (SGG) (SGU) (SGG) (PIU) (PIU) (PIG)
                 (PIG) (SGU) (SGG) (PIU) (PIU) (DLTG) (DLTG) (DLTU)
                 (DLTU) (PIG) (PIG) (SGU) (SGG) (SGU)
       Virtual   (PIU) (PIU) (SGG) (PIG) (PIG) (SGG) (SGU) (DLTG)
                 (DLTG) (SGU) (PIU) (PIU) (DLTU) (DLTU) (SGG) (PIG)
                 (PIG) (SGU) (PIU) (PIU) (DLTG) (DLTG) (DLTU) (DLTU)
                 (SGG) (PIG) (PIG) (SGU) (PIU) (PIU) (SGG) (PIG)
                 (PIG) (SGU) (SGG) (SGU) (DLTG) (PIG) (PIG) (DLTG)
                 (SGG) (DLTU) (DLTU) (PIU) (PIU) (SGU) (?A) (?A)
                 (DLTG) (?B) (?B) (?A) (?A) (DLTU) (DLTG) (SGG)
                 (DLTU) (?B) (?B) (SGU)
 Beta  Orbitals:
       Occupied  (SGU) (SGG) (SGU) (SGG) (SGG) (SGU) (PIU) (PIU)
                 (PIG) (PIG) (SGG) (SGU) (SGG) (PIU) (PIU) (PIG)
                 (PIG) (SGU) (SGG) (PIU) (PIU) (?A)
       Virtual   (SGU) (?B) (SGG) (PIG) (PIG) (SGG) (?A) (PIU)
                 (PIU) (SGU) (?B) (PIG) (PIG) (SGU) (SGG) (?A)
                 (?A) (PIU) (PIU) (SGU) (?B) (?B) (SGG) (PIG) (PIG)
                 (SGU) (PIU) (PIU) (?A) (?A) (?B) (?B) (PIG) (PIG)
                 (SGG) (SGU) (PIU) (PIU) (SGG) (PIG) (PIG) (SGU)
                 (SGG) (SGU) (PIG) (PIG) (DLTG) (SGG) (DLTG) (DLTU)
                 (PIU) (PIU) (DLTU) (SGU) (DLTG) (?C) (?C) (DLTU)
                 (DLTG) (DLTU) (?D) (?D) (?C) (?C) (SGG) (?D) (?D)
                 (SGU)
    24 initial guesses have been made.
 Convergence on wavefunction:    0.001000000000000
 Davidson Disk Diagonalization:  ConvIn= 1.00D-03 SkipCon=T Conv= 1.00D-03.
 Max sub-space:  2000 roots to seek:    24 dimension of matrix:         3296
 Iteration     1 Dimension    24 NMult     0 NNew     24
 Estimated number of processors is:   46
 CISAX will form     1 AO SS matrices at one time.
 NMat=     1 NSing=     1 JSym2X= 2.
 FoFJK:  IHMeth= 1 ICntrl=       0 DoSepK=F KAlg= 0 I1Cent=           0 FoldK=F
 IRaf= 980000000 NMat=       1 IRICut=       1 DoRegI=T DoRafI=F ISym2E= 2 IDoP0=0 IntGTp=1.
 FoFCou: FMM=F IPFlag=           0 FMFlag=      100000 FMFlg1=           0
         NFxFlg=           0 DoJE=F BraDBF=F KetDBF=F FulRan=T
         wScrn=  0.000000 ICntrl=         0 IOpCl=  1 I1Cent=           0 NGrid=           0
         NMat0=    1 NMatS0=      1 NMatT0=    0 NMatD0=    1 NMtDS0=    0 NMtDT0=    0
 Integrals replicated using symmetry in FoFCou.
 CoulSu:  requested number of processors reduced to:  42 ShMem   1 Linda.
 NMat=     1 NSing=     1 JSym2X= 2.
 CoulSu:  requested number of processors reduced to:  42 ShMem   1 Linda.
 NMat=     1 NSing=     1 JSym2X= 2.
 CoulSu:  requested number of processors reduced to:  42 ShMem   1 Linda.
 NMat=     1 NSing=     1 JSym2X= 2.
 CoulSu:  requested number of processors reduced to:  42 ShMem   1 Linda.
 NMat=     1 NSing=     1 JSym2X= 2.
 CoulSu:  requested number of processors reduced to:  42 ShMem   1 Linda.
 NMat=     1 NSing=     1 JSym2X= 2.
 CoulSu:  requested number of processors reduced to:  42 ShMem   1 Linda.
 NMat=     1 NSing=     1 JSym2X= 2.
 CoulSu:  requested number of processors reduced to:  42 ShMem   1 Linda.
 NMat=     1 NSing=     1 JSym2X= 2.
 CoulSu:  requested number of processors reduced to:  42 ShMem   1 Linda.
 NMat=     1 NSing=     1 JSym2X= 2.
 CoulSu:  requested number of processors reduced to:  42 ShMem   1 Linda.
 NMat=     1 NSing=     1 JSym2X= 2.
 CoulSu:  requested number of processors reduced to:  42 ShMem   1 Linda.
 NMat=     1 NSing=     1 JSym2X= 2.
 CoulSu:  requested number of processors reduced to:  42 ShMem   1 Linda.
 NMat=     1 NSing=     1 JSym2X= 2.
 CoulSu:  requested number of processors reduced to:  42 ShMem   1 Linda.
 NMat=     1 NSing=     1 JSym2X= 2.
 CoulSu:  requested number of processors reduced to:  42 ShMem   1 Linda.
 NMat=     1 NSing=     1 JSym2X= 2.
 CoulSu:  requested number of processors reduced to:  42 ShMem   1 Linda.
 NMat=     1 NSing=     1 JSym2X= 2.
 CoulSu:  requested number of processors reduced to:  42 ShMem   1 Linda.
 NMat=     1 NSing=     1 JSym2X= 2.
 CoulSu:  requested number of processors reduced to:  42 ShMem   1 Linda.
 NMat=     1 NSing=     1 JSym2X= 2.
 CoulSu:  requested number of processors reduced to:  42 ShMem   1 Linda.
 NMat=     1 NSing=     1 JSym2X= 2.
 CoulSu:  requested number of processors reduced to:  42 ShMem   1 Linda.
 NMat=     1 NSing=     1 JSym2X= 2.
 CoulSu:  requested number of processors reduced to:  42 ShMem   1 Linda.
 NMat=     1 NSing=     1 JSym2X= 2.
 CoulSu:  requested number of processors reduced to:  42 ShMem   1 Linda.
 NMat=     1 NSing=     1 JSym2X= 2.
 CoulSu:  requested number of processors reduced to:  42 ShMem   1 Linda.
 NMat=     1 NSing=     1 JSym2X= 2.
 CoulSu:  requested number of processors reduced to:  42 ShMem   1 Linda.
 NMat=     1 NSing=     1 JSym2X= 2.
 CoulSu:  requested number of processors reduced to:  42 ShMem   1 Linda.
 NMat=     1 NSing=     1 JSym2X= 2.
 CoulSu:  requested number of processors reduced to:  42 ShMem   1 Linda.
 New state      1 was old state      2
 Excitation Energies [eV] at current iteration:
 Root      1 :    -2.755802894301740
 Root      2 :    -2.497240469636249
 Root      3 :    -2.497240469633681
 Root      4 :    -0.678859237277565
 Root      5 :    -0.442391056169459
 Root      6 :    -0.432389430959555
 Root      7 :     0.452566189478468
 Root      8 :     0.637212480798905
 Root      9 :     0.637773750476476
 Root     10 :     0.836899739054188
 Root     11 :     1.805169883235537
 Root     12 :     1.956660922765762
 Root     13 :     1.956660922768849
 Root     14 :     2.446218181612017
 Root     15 :     2.446218181617782
 Root     16 :     2.790600381478376
 Root     17 :     3.076154363167042
 Root     18 :     3.244510691450149
 Root     19 :     3.244510691450723
 Root     20 :     3.375307747958562
 Root     21 :     3.600048453102829
 Root     22 :     4.220894938000085
 Root     23 :     6.333588327518491
 Root     24 :    24.269780293425720
 Iteration     2 Dimension    48 NMult    24 NNew     24
 Estimated number of processors is:   46
 CISAX will form     1 AO SS matrices at one time.
 NMat=     1 NSing=     1 JSym2X= 2.
 CoulSu:  requested number of processors reduced to:  42 ShMem   1 Linda.
 NMat=     1 NSing=     1 JSym2X= 2.
 CoulSu:  requested number of processors reduced to:  42 ShMem   1 Linda.
 NMat=     1 NSing=     1 JSym2X= 2.
 CoulSu:  requested number of processors reduced to:  42 ShMem   1 Linda.
 NMat=     1 NSing=     1 JSym2X= 2.
 CoulSu:  requested number of processors reduced to:  42 ShMem   1 Linda.
 NMat=     1 NSing=     1 JSym2X= 2.
 CoulSu:  requested number of processors reduced to:  42 ShMem   1 Linda.
 NMat=     1 NSing=     1 JSym2X= 2.
 CoulSu:  requested number of processors reduced to:  42 ShMem   1 Linda.
 NMat=     1 NSing=     1 JSym2X= 2.
 CoulSu:  requested number of processors reduced to:  42 ShMem   1 Linda.
 NMat=     1 NSing=     1 JSym2X= 2.
 CoulSu:  requested number of processors reduced to:  42 ShMem   1 Linda.
 NMat=     1 NSing=     1 JSym2X= 2.
 CoulSu:  requested number of processors reduced to:  42 ShMem   1 Linda.
 NMat=     1 NSing=     1 JSym2X= 2.
 CoulSu:  requested number of processors reduced to:  42 ShMem   1 Linda.
 NMat=     1 NSing=     1 JSym2X= 2.
 CoulSu:  requested number of processors reduced to:  42 ShMem   1 Linda.
 NMat=     1 NSing=     1 JSym2X= 2.
 CoulSu:  requested number of processors reduced to:  42 ShMem   1 Linda.
 NMat=     1 NSing=     1 JSym2X= 2.
 CoulSu:  requested number of processors reduced to:  42 ShMem   1 Linda.
 NMat=     1 NSing=     1 JSym2X= 2.
 CoulSu:  requested number of processors reduced to:  42 ShMem   1 Linda.
 NMat=     1 NSing=     1 JSym2X= 2.
 CoulSu:  requested number of processors reduced to:  42 ShMem   1 Linda.
 NMat=     1 NSing=     1 JSym2X= 2.
 CoulSu:  requested number of processors reduced to:  42 ShMem   1 Linda.
 NMat=     1 NSing=     1 JSym2X= 2.
 CoulSu:  requested number of processors reduced to:  42 ShMem   1 Linda.
 NMat=     1 NSing=     1 JSym2X= 2.
 CoulSu:  requested number of processors reduced to:  42 ShMem   1 Linda.
 NMat=     1 NSing=     1 JSym2X= 2.
 CoulSu:  requested number of processors reduced to:  42 ShMem   1 Linda.
 NMat=     1 NSing=     1 JSym2X= 2.
 CoulSu:  requested number of processors reduced to:  42 ShMem   1 Linda.
 NMat=     1 NSing=     1 JSym2X= 2.
 CoulSu:  requested number of processors reduced to:  42 ShMem   1 Linda.
 NMat=     1 NSing=     1 JSym2X= 2.
 CoulSu:  requested number of processors reduced to:  42 ShMem   1 Linda.
 NMat=     1 NSing=     1 JSym2X= 2.
 CoulSu:  requested number of processors reduced to:  42 ShMem   1 Linda.
 NMat=     1 NSing=     1 JSym2X= 2.
 CoulSu:  requested number of processors reduced to:  42 ShMem   1 Linda.
 Root      1 not converged, maximum delta is    0.148218577764128
 Excitation Energies [eV] at current iteration:
 Root      1 :    -3.996345007278346   Change is   -1.240542112976606
 Root      2 :    -3.685988938941175   Change is   -1.188748469304926
 Root      3 :    -3.685988938939030   Change is   -1.188748469305348
 Root      4 :    -2.225736815719746   Change is   -1.783345759550287
 Root      5 :    -2.113841457174073   Change is   -1.681452026214518
 Root      6 :    -0.941865413892059   Change is   -0.263006176614494
 Root      7 :     0.000998420581543   Change is   -0.451567768896926
 Root      8 :     0.124763652512557   Change is   -0.512448828286348
 Root      9 :     0.138777461157200   Change is   -0.498996289319275
 Root     10 :     0.396628719695453   Change is   -0.440271019358735
 Root     11 :     1.625996363579482   Change is   -0.179173519656055
 Root     12 :     1.852287886421684   Change is   -0.104373036344078
 Root     13 :     1.852287886424735   Change is   -0.104373036344114
 Root     14 :     2.046394249866587   Change is   -0.399823931745430
 Root     15 :     2.046394249870950   Change is   -0.399823931746832
 Root     16 :     2.596338742214812   Change is   -0.194261639263564
 Root     17 :     2.784724038866337   Change is   -0.459786652583812
 Root     18 :     2.784724038866591   Change is   -0.459786652584132
 Root     19 :     2.844653429119681   Change is   -1.376241508880404
 Root     20 :     2.907186069279044   Change is   -0.468121678679518
 Root     21 :     2.957571377483609   Change is   -0.118582985683434
 Root     22 :     3.142174116987006   Change is   -0.457874336115823
 Root     23 :     3.945938144757846   Change is   -2.387650182760645
 Root     24 :     5.598424344338428
 Iteration     3 Dimension    51 NMult    48 NNew      3
 Estimated number of processors is:   46
 CISAX will form     1 AO SS matrices at one time.
 NMat=     1 NSing=     1 JSym2X= 2.
 CoulSu:  requested number of processors reduced to:  42 ShMem   1 Linda.
 NMat=     1 NSing=     1 JSym2X= 2.
 CoulSu:  requested number of processors reduced to:  42 ShMem   1 Linda.
 NMat=     1 NSing=     1 JSym2X= 2.
 CoulSu:  requested number of processors reduced to:  42 ShMem   1 Linda.
 Root      1 not converged, maximum delta is    0.014416280727838
 Excitation Energies [eV] at current iteration:
 Root      1 :    -4.016665733034558   Change is   -0.020320725756212
 Root      2 :    -3.703408056232531   Change is   -0.017419117291357
 Root      3 :    -3.703408056230407   Change is   -0.017419117291378
 Iteration     4 Dimension    54 NMult    51 NNew      3
 Estimated number of processors is:   46
 CISAX will form     1 AO SS matrices at one time.
 NMat=     1 NSing=     1 JSym2X= 2.
 CoulSu:  requested number of processors reduced to:  42 ShMem   1 Linda.
 NMat=     1 NSing=     1 JSym2X= 2.
 CoulSu:  requested number of processors reduced to:  42 ShMem   1 Linda.
 NMat=     1 NSing=     1 JSym2X= 2.
 CoulSu:  requested number of processors reduced to:  42 ShMem   1 Linda.
 Root      1 not converged, maximum delta is    0.002147076903704
 Excitation Energies [eV] at current iteration:
 Root      1 :    -4.017753513785924   Change is   -0.001087780751365
 Root      2 :    -3.704301952424248   Change is   -0.000893896191718
 Root      3 :    -3.704301952422116   Change is   -0.000893896191708
 Cease iterating as an instability has been found.
 ***********************************************************************
 Stability analysis using <AA,BB:AA,BB> singles matrix:
 ***********************************************************************
 1PDM for each excited state written to RWF  633
 Ground to excited state transition densities written to RWF  633

 Eigenvectors of the stability matrix:
 
 Eigenvector   1:  9.061-SGU  Eigenvalue=-0.1476497  <S**2>=20.276
     20B -> 26B        0.19681
     20B -> 27B       -0.27121
     20B -> 34B       -0.14999
     20B -> 35B        0.10003
     21B -> 26B       -0.27121
     21B -> 27B       -0.19681
     21B -> 34B        0.10003
     21B -> 35B        0.14999
     22B -> 24B        0.82965
 
 Excited state symmetry could not be determined.
 Eigenvector   2:  9.059-?Sym  Eigenvalue=-0.1361306  <S**2>=20.266
     20B -> 24B        0.26728
     21B -> 24B        0.62528
     22B -> 26B        0.33055
     22B -> 27B        0.55258
     22B -> 35B       -0.31479
 
 Excited state symmetry could not be determined.
 Eigenvector   3:  9.059-?Sym  Eigenvalue=-0.1361306  <S**2>=20.266
     20B -> 24B        0.62528
     21B -> 24B       -0.26728
     22B -> 26B       -0.55258
     22B -> 27B        0.33055
     22B -> 34B        0.31479
 The wavefunction has an internal instability.
 Leave Link  914 at Sun Apr 18 07:43:18 2021, MaxMem=   104857600 cpu:            2968.2 elap:              66.3
 (Enter /s/ls4/users/knvvv/bin/g16sse/l508.exe)
 Keep R1 and R2 ints in memory in symmetry-blocked form, NReq=53042358.
 FoFCou: FMM=F IPFlag=           0 FMFlag=           0 FMFlg1=           0
         NFxFlg=           0 DoJE=F BraDBF=F KetDBF=F FulRan=T
         wScrn=  0.000000 ICntrl=       600 IOpCl=  0 I1Cent=           0 NGrid=           0
         NMat0=    1 NMatS0=   4095 NMatT0=    0 NMatD0=    1 NMtDS0=    0 NMtDT0=    0
 Petite list used in FoFCou.
 Tight linear equation convergence will be used.
 UM062X wavefunction.
 Quadratic Convergence SCF Method.
 Line search only if initial step raises energy.
 Perform preliminary linear searches along instability eigenvector.
     ILin= 1 X=0.000D+00 Y=-2.527160027544D+03 DE= 0.00D+00
     ILin= 2 X=1.000D-01 Y=-2.527161490844D+03 DE=-1.46D-03
     ILin= 3 X=1.414D-01 Y=-2.527162927811D+03 DE=-2.90D-03
     ILin= 4 X=2.000D-01 Y=-2.527165722619D+03 DE=-5.70D-03
     ILin= 5 X=2.828D-01 Y=-2.527170994988D+03 DE=-1.10D-02
     ILin= 6 X=4.000D-01 Y=-2.527180267906D+03 DE=-2.02D-02
     ILin= 7 X=5.657D-01 Y=-2.527193752855D+03 DE=-3.37D-02
     ILin= 8 X=8.000D-01 Y=-2.527201274267D+03 DE=-4.12D-02
     ILin= 9 X=1.131D+00 Y=-2.527148466791D+03 DE= 1.16D-02
     An  expanding polynomial of degree  9 produced  0.7589
 Iteration F X= 7.589D-01 EE=-2.527201755841130D+03
     ILin= 1 X=0.000D+00 Y=-2.527160027544D+03 DE= 0.00D+00
     ILin= 2 X=1.000D-01 Y=-2.527161490844D+03 DE=-1.46D-03
     ILin= 3 X=1.414D-01 Y=-2.527162927811D+03 DE=-2.90D-03
 The two search directions are symmetric.
 Iteration B X= 7.589D-01 EE=-2.527201755841130D+03
 Take forward step, X= 7.589D-01 Step= 7.589D-01
 Iteration   1 EE= -2527.20175663990                                    Grad=1.431D-01 Max rot=    1.8326 deg.
 Gradient too large for Newton-Raphson -- use scaled steepest descent instead.
 Alpha Gap=     0.210 HL deriv= 1.90D-15
  Beta Gap=     0.243 HL deriv= 2.08D-14
     ILin= 1 X=0.000D+00 Y=-2.527201756640D+03 DE= 0.00D+00 F= -3.28D-02
     ILin= 2 X=3.000D-01 Y=-2.527207234889D+03 DE=-5.48D-03 F= -3.74D-03
     ILin= 3 X=5.000D-01 Y=-2.527206043667D+03 DE=-4.29D-03 F=  1.57D-02
     An  expanding polynomial of degree  3 produced  0.3385
 Iteration   2 EE= -2527.20730704919     Delta-E=       -0.005550409281 Grad=5.109D-02 Max rot=    0.9727 deg.
 Gradient too large for Newton-Raphson -- use scaled steepest descent instead.
 Alpha Gap=     0.211 HL deriv= 5.79D-16
  Beta Gap=     0.218 HL deriv= 2.54D-15
     ILin= 1 X=0.000D+00 Y=-2.527207307049D+03 DE= 0.00D+00 F= -7.12D-03
     ILin= 2 X=3.000D-01 Y=-2.527209058059D+03 DE=-1.75D-03 F= -4.55D-03
     ILin= 3 X=6.000D-01 Y=-2.527210040149D+03 DE=-2.73D-03 F= -1.99D-03
     ILin= 4 X=1.100D+00 Y=-2.527209973572D+03 DE=-2.67D-03 F=  2.25D-03
     An  expanding polynomial of degree  4 produced  0.8343
 Iteration   3 EE= -2527.21027337450     Delta-E=       -0.002966325313 Grad=6.945D-02 Max rot=    0.8167 deg.
 Gradient too large for Newton-Raphson -- use scaled steepest descent instead.
 Alpha Gap=     0.210 HL deriv= 8.51D-16
  Beta Gap=     0.254 HL deriv= 1.95D-14
     ILin= 1 X=0.000D+00 Y=-2.527210273374D+03 DE= 0.00D+00 F= -8.23D-03
     ILin= 2 X=5.000D-01 Y=-2.527211521883D+03 DE=-1.25D-03 F=  3.23D-03
     Accept linear search using points  1 and  2.
     An  expanding polynomial of degree  2 produced  0.2794
 Iteration   4 EE= -2527.21167778581     Delta-E=       -0.001404411314 Grad=2.234D-02 Max rot=    0.4410 deg.
 Gradient too large for Newton-Raphson -- use scaled steepest descent instead.
 Alpha Gap=     0.210 HL deriv= 5.87D-16
  Beta Gap=     0.240 HL deriv= 8.94D-15
     ILin= 1 X=0.000D+00 Y=-2.527211677786D+03 DE= 0.00D+00 F= -1.68D-03
     ILin= 2 X=8.000D-01 Y=-2.527212813396D+03 DE=-1.14D-03 F= -1.16D-03
     ILin= 3 X=1.700D+00 Y=-2.527213589215D+03 DE=-1.91D-03 F= -5.62D-04
     Reject lnstep minimum 3.597D+00 FVal=-2.527214508355D+03 Lims=  8.00D-01  1.70D+00
     ILin= 4 X=3.300D+00 Y=-2.527213611217D+03 DE=-1.93D-03 F=  5.43D-04
     Accept linear search using points  3 and  4.
     An  expanding polynomial of degree  4 produced  2.5409
 Iteration   5 EE= -2527.21382111489     Delta-E=       -0.002143329075 Grad=1.530D-02 Max rot=    0.2518 deg.
 Gradient too large for Newton-Raphson -- use scaled steepest descent instead.
 Alpha Gap=     0.207 HL deriv= 9.58D-16
  Beta Gap=     0.251 HL deriv= 1.05D-14
     ILin= 1 X=0.000D+00 Y=-2.527213821115D+03 DE= 0.00D+00 F= -3.33D-04
     ILin= 2 X=8.000D-01 Y=-2.527213949048D+03 DE=-1.28D-04 F=  1.39D-05
     Accept linear search using points  1 and  2.
     An  expanding polynomial of degree  2 produced  0.7397
     Minimum is close to point  2 DX= -6.03D-02 DF= -5.35D-07 DXR=  8.15D-02 DFR=  4.18D-03 which will be used.
 Iteration   6 EE= -2527.21394904770     Delta-E=       -0.000127932812 Grad=1.153D-02 Max rot=    0.1015 deg.
 Gradient too large for Newton-Raphson -- use scaled steepest descent instead.
 Alpha Gap=     0.207 HL deriv= 2.27D-16
  Beta Gap=     0.256 HL deriv= 3.17D-15
     ILin= 1 X=0.000D+00 Y=-2.527213949048D+03 DE= 0.00D+00 F= -1.86D-04
     ILin= 2 X=1.400D+00 Y=-2.527213885498D+03 DE= 6.35D-05 F=  2.76D-04
     Reject lnstep minimum 4.866D-01 FVal=-2.527213980542D+03 Lims=  0.00D+00  1.40D+00
     ILin= 3 X=5.000D-01 Y=-2.527214000682D+03 DE=-5.16D-05 F= -2.06D-05
     A contracting polynomial of degree  3 produced  0.5626
 Iteration   7 EE= -2527.21400132202     Delta-E=       -0.000052274319 Grad=6.327D-03 Max rot=    0.0532 deg.
 QCNR:  CnvC1=5.74D-09 CnvC2=5.74D-08
 LinEq1:  Iter=  0 NonCon=     1 RMS=1.39D-04 Max=3.94D-03 NDo=     1
 AX will form     1 AO Fock derivatives at one time.
 LinEq1:  Iter=  1 NonCon=     1 RMS=1.95D-04 Max=5.32D-03 NDo=     1
 LinEq1:  Iter=  2 NonCon=     1 RMS=1.04D-04 Max=2.87D-03 NDo=     1
 LinEq1:  Iter=  3 NonCon=     1 RMS=8.86D-05 Max=3.22D-03 NDo=     1
 LinEq1:  Iter=  4 NonCon=     1 RMS=9.49D-06 Max=3.57D-04 NDo=     1
 LinEq1:  Iter=  5 NonCon=     1 RMS=1.76D-06 Max=4.48D-05 NDo=     1
 LinEq1:  Iter=  6 NonCon=     1 RMS=7.67D-07 Max=2.06D-05 NDo=     1
 LinEq1:  Iter=  7 NonCon=     1 RMS=2.39D-07 Max=6.09D-06 NDo=     1
 LinEq1:  Iter=  8 NonCon=     1 RMS=6.80D-08 Max=1.44D-06 NDo=     1
 LinEq1:  Iter=  9 NonCon=     1 RMS=1.54D-08 Max=2.76D-07 NDo=     1
 LinEq1:  Iter= 10 NonCon=     1 RMS=4.14D-09 Max=9.84D-08 NDo=     1
 LinEq1:  Iter= 11 NonCon=     1 RMS=1.97D-09 Max=6.90D-08 NDo=     1
 LinEq1:  Iter= 12 NonCon=     0 RMS=5.94D-10 Max=1.33D-08 NDo=     1
 Linear equations converged to 5.741D-09 5.741D-08 after    12 iterations.
 Angle between quadratic step and gradient=  63.97 degrees.
     ILin= 1 X=0.000D+00 Y=-2.527214001322D+03 DE= 0.00D+00 F= -1.31D-04
     ILin= 2 X=1.000D+00 Y=-2.527214067466D+03 DE=-6.61D-05 F= -2.10D-06
     Reject lnstep minimum 1.017D+00 FVal=-2.527214067483D+03 Lims=  0.00D+00  1.00D+00
     ILin= 3 X=2.000D+00 Y=-2.527214006670D+03 DE=-5.35D-06 F=  1.23D-04
     An  expanding polynomial of degree  3 produced  1.0211
     Minimum is close to point  2 DX=  2.11D-02 DF= -2.82D-08 DXR=  2.06D-02 DFR=  4.26D-04 which will be used.
 Iteration   8 EE= -2527.21406746597     Delta-E=       -0.000066143951 Grad=1.439D-04 Max rot=    0.0024 deg.
 QCNR:  CnvC1=1.44D-09 CnvC2=1.44D-08
 LinEq1:  Iter=  0 NonCon=     1 RMS=4.77D-06 Max=1.75D-04 NDo=     1
 LinEq1:  Iter=  1 NonCon=     1 RMS=4.20D-06 Max=1.03D-04 NDo=     1
 LinEq1:  Iter=  2 NonCon=     1 RMS=3.23D-06 Max=6.32D-05 NDo=     1
 LinEq1:  Iter=  3 NonCon=     1 RMS=1.70D-06 Max=3.93D-05 NDo=     1
 LinEq1:  Iter=  4 NonCon=     1 RMS=8.93D-07 Max=1.88D-05 NDo=     1
 LinEq1:  Iter=  5 NonCon=     1 RMS=4.85D-07 Max=1.07D-05 NDo=     1
 LinEq1:  Iter=  6 NonCon=     1 RMS=1.87D-07 Max=5.45D-06 NDo=     1
 LinEq1:  Iter=  7 NonCon=     1 RMS=5.22D-08 Max=1.08D-06 NDo=     1
 LinEq1:  Iter=  8 NonCon=     1 RMS=1.20D-08 Max=2.91D-07 NDo=     1
 LinEq1:  Iter=  9 NonCon=     1 RMS=2.72D-09 Max=5.49D-08 NDo=     1
 LinEq1:  Iter= 10 NonCon=     1 RMS=8.97D-10 Max=2.32D-08 NDo=     1
 LinEq1:  Iter= 11 NonCon=     0 RMS=3.41D-10 Max=7.94D-09 NDo=     1
 Linear equations converged to 1.439D-09 1.439D-08 after    11 iterations.
 Angle between quadratic step and gradient=  58.07 degrees.
     ILin= 1 X=0.000D+00 Y=-2.527214067466D+03 DE= 0.00D+00 F= -1.09D-07
     ILin= 2 X=1.000D+00 Y=-2.527214067521D+03 DE=-5.45D-08 F= -1.89D-10
     Reject lnstep minimum 1.002D+00 FVal=-2.527214067521D+03 Lims=  0.00D+00  1.00D+00
     ILin= 3 X=2.000D+00 Y=-2.527214067466D+03 DE=-5.18D-10 F=  1.08D-07
     An  expanding polynomial of degree  3 produced  1.0024
     Minimum is close to point  2 DX=  2.39D-03 DF= -4.55D-13 DXR=  2.38D-03 DFR=  8.34D-06 which will be used.
 Iteration   9 EE= -2527.21406752051     Delta-E=       -0.000000054544 Grad=2.081D-07 Max rot=    0.0000 deg.
 Rotation gradient small -- convergence achieved.
 Density matrix breaks symmetry, PCut= 1.00D-04
 Density matrix has no symmetry -- integrals replicated.
 Density matrix is not symmetric, so final MOs not symmetrized.
 SCF Done:  E(UM062X) =  -2527.21406752     a.u. after    9 cycles
            Convg  =    0.2081D-06                    55 Fock formations.
              S**2 = 20.1863                  -V/T =  2.0012
 <Sx>= 0.0000 <Sy>= 0.0000 <Sz>= 4.0000 <S**2>=20.1863 S= 4.0207
 <L.S>= 0.000000000000E+00
 Annihilation of the first spin contaminant:
 S**2 before annihilation    20.1863,   after    20.0058
 Leave Link  508 at Sun Apr 18 07:43:44 2021, MaxMem=   104857600 cpu:            1212.5 elap:              26.0
 (Enter /s/ls4/users/knvvv/bin/g16sse/l801.exe)
 DoSCS=F DFT=T ScalE2(SS,OS)=  1.000000  1.000000
 Range of M.O.s used for correlation:     1    90
 NBasis=    90 NAE=    30 NBE=    22 NFC=     0 NFV=     0
 NROrb=     90 NOA=    30 NOB=    22 NVA=    60 NVB=    68
 Leave Link  801 at Sun Apr 18 07:43:44 2021, MaxMem=   104857600 cpu:               3.6 elap:               0.1
 (Enter /s/ls4/users/knvvv/bin/g16sse/l914.exe)
 UHF ground state
 Doing stability rather than CIS.
 Two-electron integrals replicated using symmetry.
 MDV=   104857600 DFT=T DoStab=T Mixed=T DoRPA=F DoScal=F NonHer=F
 Making orbital integer symmetry assigments:
 Orbital symmetries:
 Alpha Orbitals:
       Occupied  (?A) (?A) (?A) (?A) (?A) (?B) (?B) (?B) (?B) (?A)
                 (?C) (?C) (?A) (?B) (?B) (?B) (?B) (?A) (?C) (?D)
                 (?D) (?E) (?E) (?E) (?E) (?C) (?D) (?D) (?C) (?C)
       Virtual   (?D) (?D) (?C) (?D) (?D) (?C) (?C) (?E) (?E) (?C)
                 (?D) (?D) (?E) (?E) (?C) (PIG) (PIG) (?C) (?D)
                 (?D) (?E) (?E) (?E) (?E) (?C) (?D) (?D) (?C) (?D)
                 (?D) (?C) (?D) (?D) (?C) (?F) (?F) (?G) (?G) (?E)
                 (?F) (?E) (?E) (?E) (?G) (?G) (?F) (?E) (?G) (?G)
                 (?E) (?G) (?G) (?F) (?G) (?G) (?E) (?E) (?G) (?G)
                 (?F)
 Beta  Orbitals:
       Occupied  (?A) (?A) (?A) (?A) (?A) (?B) (?B) (?B) (?B) (?A)
                 (?A) (?A) (?A) (?B) (?B) (?A) (?B) (?B) (?C) (?D)
                 (?D) (?E)
       Virtual   (?E) (?E) (?E) (?D) (?D) (?C) (?C) (?D) (?D) (?E)
                 (?C) (?D) (?D) (?E) (?E) (?C) (?C) (?D) (?D) (?E)
                 (?C) (?C) (?E) (?D) (?D) (?E) (?D) (?D) (?C) (?C)
                 (?C) (?C) (?D) (?D) (?E) (?E) (?B) (?B) (?E) (?B)
                 (?B) (?E) (?E) (?E) (?C) (?D) (?D) (?E) (?C) (?C)
                 (?D) (?D) (?C) (?E) (?F) (?G) (?G) (?G) (?G) (?F)
                 (?F) (?F) (?E) (?G) (?G) (?G) (?G) (?E)
    24 initial guesses have been made.
 Convergence on wavefunction:    0.001000000000000
 Davidson Disk Diagonalization:  ConvIn= 1.00D-03 SkipCon=T Conv= 1.00D-03.
 Max sub-space:  2000 roots to seek:    24 dimension of matrix:         3296
 Iteration     1 Dimension    24 NMult     0 NNew     24
 Estimated number of processors is:   46
 CISAX will form     1 AO SS matrices at one time.
 NMat=     1 NSing=     1 JSym2X= 2.
 FoFJK:  IHMeth= 1 ICntrl=       0 DoSepK=F KAlg= 0 I1Cent=           0 FoldK=F
 IRaf= 980000000 NMat=       1 IRICut=       1 DoRegI=T DoRafI=F ISym2E= 2 IDoP0=0 IntGTp=1.
 FoFCou: FMM=F IPFlag=           0 FMFlag=      100000 FMFlg1=           0
         NFxFlg=           0 DoJE=F BraDBF=F KetDBF=F FulRan=T
         wScrn=  0.000000 ICntrl=         0 IOpCl=  1 I1Cent=           0 NGrid=           0
         NMat0=    1 NMatS0=      1 NMatT0=    0 NMatD0=    1 NMtDS0=    0 NMtDT0=    0
 Integrals replicated using symmetry in FoFCou.
 CoulSu:  requested number of processors reduced to:  42 ShMem   1 Linda.
 NMat=     1 NSing=     1 JSym2X= 2.
 CoulSu:  requested number of processors reduced to:  42 ShMem   1 Linda.
 NMat=     1 NSing=     1 JSym2X= 2.
 CoulSu:  requested number of processors reduced to:  42 ShMem   1 Linda.
 NMat=     1 NSing=     1 JSym2X= 2.
 CoulSu:  requested number of processors reduced to:  42 ShMem   1 Linda.
 NMat=     1 NSing=     1 JSym2X= 2.
 CoulSu:  requested number of processors reduced to:  42 ShMem   1 Linda.
 NMat=     1 NSing=     1 JSym2X= 2.
 CoulSu:  requested number of processors reduced to:  42 ShMem   1 Linda.
 NMat=     1 NSing=     1 JSym2X= 2.
 CoulSu:  requested number of processors reduced to:  42 ShMem   1 Linda.
 NMat=     1 NSing=     1 JSym2X= 2.
 CoulSu:  requested number of processors reduced to:  42 ShMem   1 Linda.
 NMat=     1 NSing=     1 JSym2X= 2.
 CoulSu:  requested number of processors reduced to:  42 ShMem   1 Linda.
 NMat=     1 NSing=     1 JSym2X= 2.
 CoulSu:  requested number of processors reduced to:  42 ShMem   1 Linda.
 NMat=     1 NSing=     1 JSym2X= 2.
 CoulSu:  requested number of processors reduced to:  42 ShMem   1 Linda.
 NMat=     1 NSing=     1 JSym2X= 2.
 CoulSu:  requested number of processors reduced to:  42 ShMem   1 Linda.
 NMat=     1 NSing=     1 JSym2X= 2.
 CoulSu:  requested number of processors reduced to:  42 ShMem   1 Linda.
 NMat=     1 NSing=     1 JSym2X= 2.
 CoulSu:  requested number of processors reduced to:  42 ShMem   1 Linda.
 NMat=     1 NSing=     1 JSym2X= 2.
 CoulSu:  requested number of processors reduced to:  42 ShMem   1 Linda.
 NMat=     1 NSing=     1 JSym2X= 2.
 CoulSu:  requested number of processors reduced to:  42 ShMem   1 Linda.
 NMat=     1 NSing=     1 JSym2X= 2.
 CoulSu:  requested number of processors reduced to:  42 ShMem   1 Linda.
 NMat=     1 NSing=     1 JSym2X= 2.
 CoulSu:  requested number of processors reduced to:  42 ShMem   1 Linda.
 NMat=     1 NSing=     1 JSym2X= 2.
 CoulSu:  requested number of processors reduced to:  42 ShMem   1 Linda.
 NMat=     1 NSing=     1 JSym2X= 2.
 CoulSu:  requested number of processors reduced to:  42 ShMem   1 Linda.
 NMat=     1 NSing=     1 JSym2X= 2.
 CoulSu:  requested number of processors reduced to:  42 ShMem   1 Linda.
 NMat=     1 NSing=     1 JSym2X= 2.
 CoulSu:  requested number of processors reduced to:  42 ShMem   1 Linda.
 NMat=     1 NSing=     1 JSym2X= 2.
 CoulSu:  requested number of processors reduced to:  42 ShMem   1 Linda.
 NMat=     1 NSing=     1 JSym2X= 2.
 CoulSu:  requested number of processors reduced to:  42 ShMem   1 Linda.
 New state      1 was old state      9
 Excitation Energies [eV] at current iteration:
 Root      1 :     1.559868556981809
 Root      2 :     1.559868556989658
 Root      3 :     2.245991690951013
 Root      4 :     2.350657885355082
 Root      5 :     2.728508596396807
 Root      6 :     2.728508596399725
 Root      7 :     2.931228561798553
 Root      8 :     2.931228561803472
 Root      9 :     3.055017817182556
 Root     10 :     3.069843688573943
 Root     11 :     3.069843688578015
 Root     12 :     3.771058364006921
 Root     13 :     3.901606922703066
 Root     14 :     4.019176428040177
 Root     15 :     4.554995625709097
 Root     16 :     4.554995625713357
 Root     17 :     4.717921521069893
 Root     18 :     4.717921521071772
 Root     19 :     4.916438656348113
 Root     20 :     5.601103941455266
 Root     21 :     6.142982300917541
 Root     22 :     6.142982300933075
 Root     23 :     9.880148871578170
 Root     24 :    11.534623379995310
 Iteration     2 Dimension    48 NMult    24 NNew     24
 Estimated number of processors is:   46
 CISAX will form     1 AO SS matrices at one time.
 NMat=     1 NSing=     1 JSym2X= 2.
 CoulSu:  requested number of processors reduced to:  42 ShMem   1 Linda.
 NMat=     1 NSing=     1 JSym2X= 2.
 CoulSu:  requested number of processors reduced to:  42 ShMem   1 Linda.
 NMat=     1 NSing=     1 JSym2X= 2.
 CoulSu:  requested number of processors reduced to:  42 ShMem   1 Linda.
 NMat=     1 NSing=     1 JSym2X= 2.
 CoulSu:  requested number of processors reduced to:  42 ShMem   1 Linda.
 NMat=     1 NSing=     1 JSym2X= 2.
 CoulSu:  requested number of processors reduced to:  42 ShMem   1 Linda.
 NMat=     1 NSing=     1 JSym2X= 2.
 CoulSu:  requested number of processors reduced to:  42 ShMem   1 Linda.
 NMat=     1 NSing=     1 JSym2X= 2.
 CoulSu:  requested number of processors reduced to:  42 ShMem   1 Linda.
 NMat=     1 NSing=     1 JSym2X= 2.
 CoulSu:  requested number of processors reduced to:  42 ShMem   1 Linda.
 NMat=     1 NSing=     1 JSym2X= 2.
 CoulSu:  requested number of processors reduced to:  42 ShMem   1 Linda.
 NMat=     1 NSing=     1 JSym2X= 2.
 CoulSu:  requested number of processors reduced to:  42 ShMem   1 Linda.
 NMat=     1 NSing=     1 JSym2X= 2.
 CoulSu:  requested number of processors reduced to:  42 ShMem   1 Linda.
 NMat=     1 NSing=     1 JSym2X= 2.
 CoulSu:  requested number of processors reduced to:  42 ShMem   1 Linda.
 NMat=     1 NSing=     1 JSym2X= 2.
 CoulSu:  requested number of processors reduced to:  42 ShMem   1 Linda.
 NMat=     1 NSing=     1 JSym2X= 2.
 CoulSu:  requested number of processors reduced to:  42 ShMem   1 Linda.
 NMat=     1 NSing=     1 JSym2X= 2.
 CoulSu:  requested number of processors reduced to:  42 ShMem   1 Linda.
 NMat=     1 NSing=     1 JSym2X= 2.
 CoulSu:  requested number of processors reduced to:  42 ShMem   1 Linda.
 NMat=     1 NSing=     1 JSym2X= 2.
 CoulSu:  requested number of processors reduced to:  42 ShMem   1 Linda.
 NMat=     1 NSing=     1 JSym2X= 2.
 CoulSu:  requested number of processors reduced to:  42 ShMem   1 Linda.
 NMat=     1 NSing=     1 JSym2X= 2.
 CoulSu:  requested number of processors reduced to:  42 ShMem   1 Linda.
 NMat=     1 NSing=     1 JSym2X= 2.
 CoulSu:  requested number of processors reduced to:  42 ShMem   1 Linda.
 NMat=     1 NSing=     1 JSym2X= 2.
 CoulSu:  requested number of processors reduced to:  42 ShMem   1 Linda.
 NMat=     1 NSing=     1 JSym2X= 2.
 CoulSu:  requested number of processors reduced to:  42 ShMem   1 Linda.
 NMat=     1 NSing=     1 JSym2X= 2.
 CoulSu:  requested number of processors reduced to:  42 ShMem   1 Linda.
 NMat=     1 NSing=     1 JSym2X= 2.
 CoulSu:  requested number of processors reduced to:  42 ShMem   1 Linda.
 Root      1 not converged, maximum delta is    0.536626937950526
 Excitation Energies [eV] at current iteration:
 Root      1 :     0.364801495828336   Change is   -1.195067061153473
 Root      2 :     0.364801495829532   Change is   -1.195067061160126
 Root      3 :     0.879631880566922   Change is   -1.366359810384091
 Root      4 :     1.107911572884113   Change is   -1.242746312470969
 Root      5 :     1.250113740759745   Change is   -1.819729947818270
 Root      6 :     1.250113740765576   Change is   -1.819729947808367
 Root      7 :     2.272411662592671   Change is   -0.456096933804136
 Root      8 :     2.272411662596822   Change is   -0.456096933802904
 Root      9 :     2.443366329384010   Change is   -0.611651487798546
 Root     10 :     2.585640114416107   Change is   -0.345588447382446
 Root     11 :     2.585640114420132   Change is   -0.345588447383340
 Root     12 :     2.992198338453370   Change is   -0.778860025553551
 Root     13 :     3.511289792575858   Change is   -1.206631728494035
 Root     14 :     3.511289792582740   Change is   -1.206631728489032
 Root     15 :     3.533321133589712   Change is   -0.485855294450466
 Root     16 :     3.672902976546418   Change is   -0.228703946156648
 Root     17 :     3.757911139694585   Change is   -1.843192801760681
 Root     18 :     4.006996009514838   Change is   -0.547999616194259
 Root     19 :     4.006996009518487   Change is   -0.547999616194869
 Root     20 :     4.368547382557719   Change is   -0.547891273790394
 Root     21 :     4.608439351437939   Change is   -1.534542949479601
 Root     22 :     4.608439351442731   Change is   -1.534542949490344
 Root     23 :     5.439137849919651
 Root     24 :     5.439137849920661
 Iteration     3 Dimension    51 NMult    48 NNew      3
 Estimated number of processors is:   46
 CISAX will form     1 AO SS matrices at one time.
 NMat=     1 NSing=     1 JSym2X= 2.
 CoulSu:  requested number of processors reduced to:  42 ShMem   1 Linda.
 NMat=     1 NSing=     1 JSym2X= 2.
 CoulSu:  requested number of processors reduced to:  42 ShMem   1 Linda.
 NMat=     1 NSing=     1 JSym2X= 2.
 CoulSu:  requested number of processors reduced to:  42 ShMem   1 Linda.
 Root      1 not converged, maximum delta is    0.073399228494366
 Excitation Energies [eV] at current iteration:
 Root      1 :     0.182457602650617   Change is   -0.182343893177718
 Root      2 :     0.182457602652031   Change is   -0.182343893177501
 Root      3 :     0.743792376056460   Change is   -0.135839504510463
 Iteration     4 Dimension    54 NMult    51 NNew      3
 Estimated number of processors is:   46
 CISAX will form     1 AO SS matrices at one time.
 NMat=     1 NSing=     1 JSym2X= 2.
 CoulSu:  requested number of processors reduced to:  42 ShMem   1 Linda.
 NMat=     1 NSing=     1 JSym2X= 2.
 CoulSu:  requested number of processors reduced to:  42 ShMem   1 Linda.
 NMat=     1 NSing=     1 JSym2X= 2.
 CoulSu:  requested number of processors reduced to:  42 ShMem   1 Linda.
 New state      1 was old state      3
 Root      1 not converged, maximum delta is    0.643179886518148
 Excitation Energies [eV] at current iteration:
 Root      1 :    -0.175039337171911   Change is   -0.918831713228371
 Root      2 :     0.171001784421934   Change is   -0.011455818228684
 Root      3 :     0.171001784423396   Change is   -0.011455818228635
 Iteration     5 Dimension    57 NMult    54 NNew      3
 Estimated number of processors is:   46
 CISAX will form     1 AO SS matrices at one time.
 NMat=     1 NSing=     1 JSym2X= 2.
 CoulSu:  requested number of processors reduced to:  42 ShMem   1 Linda.
 NMat=     1 NSing=     1 JSym2X= 2.
 CoulSu:  requested number of processors reduced to:  42 ShMem   1 Linda.
 NMat=     1 NSing=     1 JSym2X= 2.
 CoulSu:  requested number of processors reduced to:  42 ShMem   1 Linda.
 Root      1 not converged, maximum delta is    0.061890634232775
 Excitation Energies [eV] at current iteration:
 Root      1 :    -0.461930690524102   Change is   -0.286891353352191
 Root      2 :     0.168777866027580   Change is   -0.002223918394353
 Root      3 :     0.168777866029073   Change is   -0.002223918394323
 Iteration     6 Dimension    60 NMult    57 NNew      3
 Estimated number of processors is:   46
 CISAX will form     1 AO SS matrices at one time.
 NMat=     1 NSing=     1 JSym2X= 2.
 CoulSu:  requested number of processors reduced to:  42 ShMem   1 Linda.
 NMat=     1 NSing=     1 JSym2X= 2.
 CoulSu:  requested number of processors reduced to:  42 ShMem   1 Linda.
 NMat=     1 NSing=     1 JSym2X= 2.
 CoulSu:  requested number of processors reduced to:  42 ShMem   1 Linda.
 Root      1 not converged, maximum delta is    0.008604788733400
 Excitation Energies [eV] at current iteration:
 Root      1 :    -0.467850450398837   Change is   -0.005919759874735
 Root      2 :     0.166029166194333   Change is   -0.002748699833247
 Root      3 :     0.166029166195922   Change is   -0.002748699833151
 Cease iterating as an instability has been found.
 ***********************************************************************
 Stability analysis using <AA,BB:AA,BB> singles matrix:
 ***********************************************************************
 1PDM for each excited state written to RWF  633
 Ground to excited state transition densities written to RWF  633

 Eigenvectors of the stability matrix:
 
 Excited state symmetry could not be determined.
 Eigenvector   1:  9.042-?Sym  Eigenvalue=-0.0171932  <S**2>=20.190
     19B -> 24B       -0.82880
     19B -> 25B       -0.22278
     19B -> 32B        0.27873
     19B -> 36B        0.24691
     19B -> 37B       -0.11824
     19B -> 42B        0.18991
     20B -> 27B       -0.14447
     21B -> 26B        0.14447
 
 Excited state symmetry could not be determined.
 Eigenvector   2:  9.033-?Sym  Eigenvalue= 0.0061015  <S**2>=20.149
     20B -> 24B        0.42796
     20B -> 28B        0.15769
     20B -> 32B        0.21175
     20B -> 33B        0.15092
     20B -> 37B        0.12851
     21B -> 24B        0.65574
     21B -> 25B        0.11753
     21B -> 32B        0.32445
     21B -> 36B        0.15201
     21B -> 37B        0.19690
     21B -> 42B        0.14776
 
 Excited state symmetry could not be determined.
 Eigenvector   3:  9.033-?Sym  Eigenvalue= 0.0061015  <S**2>=20.149
     20B -> 24B        0.65574
     20B -> 25B        0.11753
     20B -> 32B        0.32445
     20B -> 36B        0.15201
     20B -> 37B        0.19690
     20B -> 42B        0.14776
     21B -> 24B       -0.42796
     21B -> 28B        0.15769
     21B -> 32B       -0.21175
     21B -> 33B        0.15092
     21B -> 37B       -0.12851
 The wavefunction has an internal instability.
 Leave Link  914 at Sun Apr 18 07:44:43 2021, MaxMem=   104857600 cpu:            2638.7 elap:              59.3
 (Enter /s/ls4/users/knvvv/bin/g16sse/l508.exe)
 Keep R1 and R2 ints in memory in symmetry-blocked form, NReq=53042358.
 FoFCou: FMM=F IPFlag=           0 FMFlag=           0 FMFlg1=           0
         NFxFlg=           0 DoJE=F BraDBF=F KetDBF=F FulRan=T
         wScrn=  0.000000 ICntrl=       600 IOpCl=  0 I1Cent=           0 NGrid=           0
         NMat0=    1 NMatS0=   4095 NMatT0=    0 NMatD0=    1 NMtDS0=    0 NMtDT0=    0
 Petite list used in FoFCou.
 Tight linear equation convergence will be used.
 UM062X wavefunction.
 Quadratic Convergence SCF Method.
 Line search only if initial step raises energy.
 Perform preliminary linear searches along instability eigenvector.
     ILin= 1 X=0.000D+00 Y=-2.527214067521D+03 DE= 0.00D+00
     ILin= 2 X=1.000D-01 Y=-2.527214236200D+03 DE=-1.69D-04
     ILin= 3 X=1.414D-01 Y=-2.527214398671D+03 DE=-3.31D-04
     ILin= 4 X=2.000D-01 Y=-2.527214706336D+03 DE=-6.39D-04
     ILin= 5 X=2.828D-01 Y=-2.527215260604D+03 DE=-1.19D-03
     ILin= 6 X=4.000D-01 Y=-2.527216173972D+03 DE=-2.11D-03
     ILin= 7 X=5.657D-01 Y=-2.527217459117D+03 DE=-3.39D-03
     ILin= 8 X=8.000D-01 Y=-2.527218603313D+03 DE=-4.54D-03
     ILin= 9 X=1.131D+00 Y=-2.527216822562D+03 DE=-2.76D-03
     An  expanding polynomial of degree  9 produced  0.8387
 Iteration F X= 8.387D-01 EE=-2.527218634817732D+03
     ILin= 1 X=0.000D+00 Y=-2.527214067521D+03 DE= 0.00D+00
     ILin= 2 X=1.000D-01 Y=-2.527214236200D+03 DE=-1.69D-04
     ILin= 3 X=1.414D-01 Y=-2.527214398671D+03 DE=-3.31D-04
 The two search directions are symmetric.
 Iteration B X= 8.387D-01 EE=-2.527218634817732D+03
 Take forward step, X= 8.387D-01 Step= 8.387D-01
 Iteration   1 EE= -2527.21864465075                                    Grad=9.792D-02 Max rot=    1.7918 deg.
 Gradient too large for Newton-Raphson -- use scaled steepest descent instead.
 Alpha Gap=     0.197 HL deriv= 7.69D-14
  Beta Gap=     0.205 HL deriv= 7.42D-03
     ILin= 1 X=0.000D+00 Y=-2.527218644651D+03 DE= 0.00D+00 F= -5.54D-03
     ILin= 2 X=3.000D-01 Y=-2.527220049418D+03 DE=-1.40D-03 F= -3.82D-03
     ILin= 3 X=6.000D-01 Y=-2.527220935052D+03 DE=-2.29D-03 F= -2.08D-03
     ILin= 4 X=1.200D+00 Y=-2.527221138997D+03 DE=-2.49D-03 F=  1.41D-03
     Accept linear search using points  3 and  4.
     An  expanding polynomial of degree  4 produced  0.9239
 Iteration   2 EE= -2527.22130553645     Delta-E=       -0.002660885698 Grad=3.599D-02 Max rot=    0.4651 deg.
 Gradient too large for Newton-Raphson -- use scaled steepest descent instead.
 Alpha Gap=     0.199 HL deriv= 5.34D-14
  Beta Gap=     0.205 HL deriv= 8.38D-03
     ILin= 1 X=0.000D+00 Y=-2.527221305536D+03 DE= 0.00D+00 F= -2.27D-03
     ILin= 2 X=5.000D-01 Y=-2.527221682487D+03 DE=-3.77D-04 F=  7.59D-04
     Accept linear search using points  1 and  2.
     An  expanding polynomial of degree  2 produced  0.2846
 Iteration   3 EE= -2527.22170559373     Delta-E=       -0.000400057284 Grad=1.313D-02 Max rot=    0.3448 deg.
 Gradient too large for Newton-Raphson -- use scaled steepest descent instead.
 Alpha Gap=     0.199 HL deriv= 4.17D-14
  Beta Gap=     0.205 HL deriv= 1.46D-03
     ILin= 1 X=0.000D+00 Y=-2.527221705594D+03 DE= 0.00D+00 F= -4.70D-04
     ILin= 2 X=9.000D-01 Y=-2.527222079535D+03 DE=-3.74D-04 F= -3.61D-04
     ILin= 3 X=1.800D+00 Y=-2.527222355929D+03 DE=-6.50D-04 F= -2.53D-04
     Reject lnstep minimum 2.673D+00 FVal=-2.527222530581D+03 Lims=  9.00D-01  1.80D+00
     ILin= 4 X=3.700D+00 Y=-2.527222620705D+03 DE=-9.15D-04 F= -2.60D-05
     ILin= 5 X=7.400D+00 Y=-2.527221905771D+03 DE=-2.00D-04 F=  4.11D-04
     An  expanding polynomial of degree  5 produced  3.9181
[...]
 NMat=     1 NSing=     1 JSym2X= 2.
 CoulSu:  requested number of processors reduced to:  42 ShMem   1 Linda.
 NMat=     1 NSing=     1 JSym2X= 2.
 CoulSu:  requested number of processors reduced to:  42 ShMem   1 Linda.
 NMat=     1 NSing=     1 JSym2X= 2.
 CoulSu:  requested number of processors reduced to:  42 ShMem   1 Linda.
 NMat=     1 NSing=     1 JSym2X= 2.
 CoulSu:  requested number of processors reduced to:  42 ShMem   1 Linda.
 NMat=     1 NSing=     1 JSym2X= 2.
 CoulSu:  requested number of processors reduced to:  42 ShMem   1 Linda.
 NMat=     1 NSing=     1 JSym2X= 2.
 CoulSu:  requested number of processors reduced to:  42 ShMem   1 Linda.
 NMat=     1 NSing=     1 JSym2X= 2.
 CoulSu:  requested number of processors reduced to:  42 ShMem   1 Linda.
 NMat=     1 NSing=     1 JSym2X= 2.
 CoulSu:  requested number of processors reduced to:  42 ShMem   1 Linda.
 NMat=     1 NSing=     1 JSym2X= 2.
 CoulSu:  requested number of processors reduced to:  42 ShMem   1 Linda.
 NMat=     1 NSing=     1 JSym2X= 2.
 CoulSu:  requested number of processors reduced to:  42 ShMem   1 Linda.
 New state      1 was old state     21
 Excitation Energies [eV] at current iteration:
 Root      1 :     2.140424943324300
 Root      2 :     2.140874404279660
 Root      3 :     2.695011312979049
 Root      4 :     2.695011389602264
 Root      5 :     2.729113039407007
 Root      6 :     2.729113039444741
 Root      7 :     2.817914910888689
 Root      8 :     2.817915110802618
 Root      9 :     3.103779091175851
 Root     10 :     3.103779098891526
 Root     11 :     3.292127032490430
 Root     12 :     3.776977769427389
 Root     13 :     3.851192058723264
 Root     14 :     3.852674090020913
 Root     15 :     4.476850971252812
 Root     16 :     4.480966613420963
 Root     17 :     4.480966621790260
 Root     18 :     4.617332214832598
 Root     19 :     4.617332272455309
 Root     20 :     6.147627229500896
 Root     21 :     6.147627313747964
 Root     22 :     6.271259073407098
 Root     23 :     9.389132239748442
 Root     24 :    12.185466980047940
 Iteration     2 Dimension    48 NMult    24 NNew     24
 Estimated number of processors is:   46
 CISAX will form     1 AO SS matrices at one time.
 NMat=     1 NSing=     1 JSym2X= 2.
 CoulSu:  requested number of processors reduced to:  42 ShMem   1 Linda.
 NMat=     1 NSing=     1 JSym2X= 2.
 CoulSu:  requested number of processors reduced to:  42 ShMem   1 Linda.
 NMat=     1 NSing=     1 JSym2X= 2.
 CoulSu:  requested number of processors reduced to:  42 ShMem   1 Linda.
 NMat=     1 NSing=     1 JSym2X= 2.
 CoulSu:  requested number of processors reduced to:  42 ShMem   1 Linda.
 NMat=     1 NSing=     1 JSym2X= 2.
 CoulSu:  requested number of processors reduced to:  42 ShMem   1 Linda.
 NMat=     1 NSing=     1 JSym2X= 2.
 CoulSu:  requested number of processors reduced to:  42 ShMem   1 Linda.
 NMat=     1 NSing=     1 JSym2X= 2.
 CoulSu:  requested number of processors reduced to:  42 ShMem   1 Linda.
 NMat=     1 NSing=     1 JSym2X= 2.
 CoulSu:  requested number of processors reduced to:  42 ShMem   1 Linda.
 NMat=     1 NSing=     1 JSym2X= 2.
 CoulSu:  requested number of processors reduced to:  42 ShMem   1 Linda.
 NMat=     1 NSing=     1 JSym2X= 2.
 CoulSu:  requested number of processors reduced to:  42 ShMem   1 Linda.
 NMat=     1 NSing=     1 JSym2X= 2.
 CoulSu:  requested number of processors reduced to:  42 ShMem   1 Linda.
 NMat=     1 NSing=     1 JSym2X= 2.
 CoulSu:  requested number of processors reduced to:  42 ShMem   1 Linda.
 NMat=     1 NSing=     1 JSym2X= 2.
 CoulSu:  requested number of processors reduced to:  42 ShMem   1 Linda.
 NMat=     1 NSing=     1 JSym2X= 2.
 CoulSu:  requested number of processors reduced to:  42 ShMem   1 Linda.
 NMat=     1 NSing=     1 JSym2X= 2.
 CoulSu:  requested number of processors reduced to:  42 ShMem   1 Linda.
 NMat=     1 NSing=     1 JSym2X= 2.
 CoulSu:  requested number of processors reduced to:  42 ShMem   1 Linda.
 NMat=     1 NSing=     1 JSym2X= 2.
 CoulSu:  requested number of processors reduced to:  42 ShMem   1 Linda.
 NMat=     1 NSing=     1 JSym2X= 2.
 CoulSu:  requested number of processors reduced to:  42 ShMem   1 Linda.
 NMat=     1 NSing=     1 JSym2X= 2.
 CoulSu:  requested number of processors reduced to:  42 ShMem   1 Linda.
 NMat=     1 NSing=     1 JSym2X= 2.
 CoulSu:  requested number of processors reduced to:  42 ShMem   1 Linda.
 NMat=     1 NSing=     1 JSym2X= 2.
 CoulSu:  requested number of processors reduced to:  42 ShMem   1 Linda.
 NMat=     1 NSing=     1 JSym2X= 2.
 CoulSu:  requested number of processors reduced to:  42 ShMem   1 Linda.
 NMat=     1 NSing=     1 JSym2X= 2.
 CoulSu:  requested number of processors reduced to:  42 ShMem   1 Linda.
 NMat=     1 NSing=     1 JSym2X= 2.
 CoulSu:  requested number of processors reduced to:  42 ShMem   1 Linda.
 Root      1 not converged, maximum delta is    0.271198082501709
 Excitation Energies [eV] at current iteration:
 Root      1 :     0.870923697895653   Change is   -1.269501245428647
 Root      2 :     0.871633072245027   Change is   -1.269241332034633
 Root      3 :     0.990942437937686   Change is   -1.738170601507055
 Root      4 :     0.990942438243950   Change is   -1.738170601163058
 Root      5 :     2.241053327024247   Change is   -0.862725771867279
 Root      6 :     2.241053358805971   Change is   -0.862725732369880
 Root      7 :     2.259915334153621   Change is   -0.557999576735069
 Root      8 :     2.259915470256296   Change is   -0.557999640546322
 Root      9 :     2.384709913467243   Change is   -0.310301399511807
 Root     10 :     2.384709928771732   Change is   -0.310301460830531
 Root     11 :     2.784572446616787   Change is   -0.507554585873643
 Root     12 :     3.133026848703276   Change is   -0.718165210019988
 Root     13 :     3.134483581730356   Change is   -0.718190508290556
 Root     14 :     3.277651321898516   Change is   -1.339680950556793
 Root     15 :     3.277651415141420   Change is   -1.339680799691179
 Root     16 :     3.577402451009519   Change is   -0.199575318417870
 Root     17 :     3.729255099975651   Change is   -0.747595871277161
 Root     18 :     3.916929222432927   Change is   -0.564037390988036
 Root     19 :     3.916929268542296   Change is   -0.564037353247964
 Root     20 :     4.362232765155735   Change is   -1.909026308251363
 Root     21 :     4.474293318221990   Change is   -1.673333911278906
 Root     22 :     4.474293489016078   Change is   -1.673333824731885
 Root     23 :     4.480135817805156
 Root     24 :     4.480135819042483
 Iteration     3 Dimension    51 NMult    48 NNew      3
 Estimated number of processors is:   46
 CISAX will form     1 AO SS matrices at one time.
 NMat=     1 NSing=     1 JSym2X= 2.
 CoulSu:  requested number of processors reduced to:  42 ShMem   1 Linda.
 NMat=     1 NSing=     1 JSym2X= 2.
 CoulSu:  requested number of processors reduced to:  42 ShMem   1 Linda.
 NMat=     1 NSing=     1 JSym2X= 2.
 CoulSu:  requested number of processors reduced to:  42 ShMem   1 Linda.
 New state      1 was old state      3
 Root      1 not converged, maximum delta is    0.147483252632749
 Excitation Energies [eV] at current iteration:
 Root      1 :     0.437800834173221   Change is   -0.553141603764465
 Root      2 :     0.770675773666848   Change is   -0.100247924228805
 Root      3 :     0.771363197575325   Change is   -0.100269874669702
 Iteration     4 Dimension    54 NMult    51 NNew      3
 Estimated number of processors is:   46
 CISAX will form     1 AO SS matrices at one time.
 NMat=     1 NSing=     1 JSym2X= 2.
 CoulSu:  requested number of processors reduced to:  42 ShMem   1 Linda.
 NMat=     1 NSing=     1 JSym2X= 2.
 CoulSu:  requested number of processors reduced to:  42 ShMem   1 Linda.
 NMat=     1 NSing=     1 JSym2X= 2.
 CoulSu:  requested number of processors reduced to:  42 ShMem   1 Linda.
 Root      1 not converged, maximum delta is    0.006795856068759
 Excitation Energies [eV] at current iteration:
 Root      1 :     0.432627510072165   Change is   -0.005173324101056
 Root      2 :     0.656039759884768   Change is   -0.114636013782080
 Root      3 :     0.656538417852107   Change is   -0.114824779723219
 Iteration     5 Dimension    57 NMult    54 NNew      3
 Estimated number of processors is:   46
 CISAX will form     1 AO SS matrices at one time.
 NMat=     1 NSing=     1 JSym2X= 2.
 CoulSu:  requested number of processors reduced to:  42 ShMem   1 Linda.
 NMat=     1 NSing=     1 JSym2X= 2.
 CoulSu:  requested number of processors reduced to:  42 ShMem   1 Linda.
 NMat=     1 NSing=     1 JSym2X= 2.
 CoulSu:  requested number of processors reduced to:  42 ShMem   1 Linda.
 Root      1 has converged.
 Excitation Energies [eV] at current iteration:
 Root      1 :     0.432573972681326   Change is   -0.000053537390839
 Root      2 :     0.507219379713692   Change is   -0.148820380171076
 Root      3 :     0.507263853302881   Change is   -0.149274564549226
 Convergence achieved on expansion vectors.
 ***********************************************************************
 Stability analysis using <AA,BB:AA,BB> singles matrix:
 ***********************************************************************
 1PDM for each excited state written to RWF  633
 Ground to excited state transition densities written to RWF  633

 Eigenvectors of the stability matrix:
 
 Excited state symmetry could not be determined.
 Eigenvector   1:  9.036-?Sym  Eigenvalue= 0.0158968  <S**2>=20.162
     20B -> 26B        0.38717
     20B -> 32B        0.54720
     20B -> 38B       -0.19508
     21B -> 25B        0.38717
     21B -> 33B        0.54724
     21B -> 39B       -0.19509
 The wavefunction is stable under the perturbations considered.
 Leave Link  914 at Sun Apr 18 07:46:29 2021, MaxMem=   104857600 cpu:            3269.9 elap:              72.9
 (Enter /s/ls4/users/knvvv/bin/g16sse/l508.exe)
 The wavefunction is already stable.
 Leave Link  508 at Sun Apr 18 07:46:29 2021, MaxMem=   104857600 cpu:               2.2 elap:               0.1
 (Enter /s/ls4/users/knvvv/bin/g16sse/l601.exe)
 Copying SCF densities to generalized density rwf, IOpCl= 1 IROHF=0.
 SCF density gives NOpUse=  1 NOpAll=  8.
 Marking SCF density as not fully symmetric.

 **********************************************************************

            Population analysis using the SCF density.

 **********************************************************************

 Orbital symmetries:
 Alpha Orbitals:
       Occupied  (?A) (?A) (?A) (?A) (?B) (?B) (?A) (?B) (?B) (?A)
                 (?A) (?A) (?B) (?B) (?A) (?B) (?B) (?A) (?C) (?C)
                 (?D) (?D) (?E) (?C) (?C) (?D) (?D) (?E) (?E) (?E)
       Virtual   (?D) (?D) (?E) (?D) (?D) (?E) (?C) (?C) (?E) (?E)
                 (?D) (?D) (?C) (?C) (?E) (?D) (?D) (?E) (?C) (?C)
                 (?D) (?D) (?C) (?C) (?F) (?D) (?D) (?F) (?D) (?D)
                 (?F) (?D) (?D) (?F) (?A) (?A) (?G) (?G) (?H) (?H)
                 (?G) (?G) (?A) (?H) (?H) (?A) (?H) (?H) (?G) (?G)
                 (?H) (?H) (?H) (?H) (?A) (?G) (?G) (?H) (?H) (?A)
 Beta  Orbitals:
       Occupied  (?A) (?A) (?A) (?A) (?B) (?B) (?A) (?B) (?B) (?A)
                 (?A) (?A) (?A) (?B) (?B) (?A) (?B) (?B) (?C) (?D)
                 (?D) (?C)
       Virtual   (?C) (?C) (?E) (?E) (?D) (?D) (?C) (?D) (?D) (?E)
                 (?E) (?D) (?D) (?C) (?C) (?E) (?E) (?C) (?D) (?D)
                 (?E) (?E) (?C) (?D) (?D) (?C) (?D) (?D) (?E) (?E)
                 (?E) (?E) (?D) (?D) (?C) (?C) (?B) (?B) (?C) (?B)
                 (?B) (?C) (?C) (?C) (?F) (?F) (?C) (?G) (?G) (?F)
                 (?F) (?G) (?G) (?C) (?H) (?H) (?G) (?G) (?F) (?F)
                 (?C) (?F) (?F) (?H) (?H) (?G) (?G) (?C)
 Unable to determine electronic state:  an orbital has unidentified symmetry.
 Alpha  occ. eigenvalues -- -257.95730-257.90888 -30.69486 -30.63629 -26.55336
 Alpha  occ. eigenvalues --  -26.55336 -26.52285 -26.49264 -26.49264 -26.47289
 Alpha  occ. eigenvalues --   -3.80119  -3.73867  -2.57914  -2.57914  -2.52666
 Alpha  occ. eigenvalues --   -2.51028  -2.51028  -2.46936  -0.53001  -0.53001
 Alpha  occ. eigenvalues --   -0.51315  -0.51315  -0.50824  -0.46627  -0.46627
 Alpha  occ. eigenvalues --   -0.41775  -0.41775  -0.40812  -0.27862  -0.18376
 Alpha virt. eigenvalues --    0.02004   0.02004   0.02985   0.08918   0.08918
 Alpha virt. eigenvalues --    0.13642   0.16635   0.16635   0.16923   0.22555
 Alpha virt. eigenvalues --    0.24114   0.24114   0.25705   0.25705   0.30299
 Alpha virt. eigenvalues --    0.37046   0.37046   0.58799   0.84664   0.84664
 Alpha virt. eigenvalues --    0.84886   0.84886   0.95220   0.95220   0.99866
 Alpha virt. eigenvalues --    1.00089   1.00089   1.16669   1.65459   1.65459
 Alpha virt. eigenvalues --    1.77881   1.86196   1.86196   2.07842   2.64742
 Alpha virt. eigenvalues --    2.85897   3.42541   3.42542   3.45312   3.45312
 Alpha virt. eigenvalues --    3.49056   3.49058   3.49716   3.54263   3.54263
 Alpha virt. eigenvalues --    3.69016   4.03090   4.03090   4.05107   4.05110
 Alpha virt. eigenvalues --    4.08696   4.08696   4.08890   4.08890   4.11639
 Alpha virt. eigenvalues --    4.12231   4.12234   4.18098   4.18098   4.35148
  Beta  occ. eigenvalues -- -257.95623-257.90789 -30.59612 -30.54514 -26.46176
  Beta  occ. eigenvalues --  -26.46176 -26.45587 -26.41063 -26.41063 -26.40629
  Beta  occ. eigenvalues --   -3.61277  -3.56748  -2.33645  -2.32103  -2.32103
  Beta  occ. eigenvalues --   -2.28110  -2.27785  -2.27785  -0.36051  -0.28192
  Beta  occ. eigenvalues --   -0.28192  -0.27048
  Beta virt. eigenvalues --   -0.07901  -0.01800  -0.00686  -0.00685  -0.00121
  Beta virt. eigenvalues --   -0.00121   0.03240   0.03757   0.03757   0.04991
  Beta virt. eigenvalues --    0.04991   0.08524   0.08524   0.11085   0.14217
  Beta virt. eigenvalues --    0.19019   0.19019   0.19136   0.20037   0.20037
  Beta virt. eigenvalues --    0.22876   0.22876   0.23317   0.30672   0.30672
  Beta virt. eigenvalues --    0.56119   0.87817   0.87817   0.88738   0.88738
  Beta virt. eigenvalues --    0.97764   0.97764   1.00565   1.00565   1.01406
  Beta virt. eigenvalues --    1.12980   1.72922   1.72922   1.82826   1.93127
  Beta virt. eigenvalues --    1.93127   2.12997   2.75476   2.95532   3.57705
  Beta virt. eigenvalues --    3.57713   3.57921   3.58091   3.58091   3.64143
  Beta virt. eigenvalues --    3.64144   3.65424   3.65424   3.81268   4.19090
  Beta virt. eigenvalues --    4.19090   4.20261   4.20261   4.21138   4.21147
  Beta virt. eigenvalues --    4.23099   4.23126   4.23129   4.25351   4.25351
  Beta virt. eigenvalues --    4.30075   4.30075   4.46641
          Condensed to atoms (all electrons):
               1          2
     1  Fe  26.083787  -0.004155
     2  Fe  -0.004155  25.924523
          Atomic-Atomic Spin Densities.
               1          2
     1  Fe   4.495519  -0.629101
     2  Fe  -0.629101   4.762684
 Mulliken charges and spin densities:
               1          2
     1  Fe  -0.079632   3.866418
     2  Fe   0.079632   4.133582
 Sum of Mulliken charges =   0.00000   8.00000
 Mulliken charges and spin densities with hydrogens summed into heavy atoms:
               1          2
     1  Fe  -0.079632   3.866418
     2  Fe   0.079632   4.133582
 Electronic spatial extent (au):  <R**2>=            264.9002
 Charge=              0.0000 electrons
 Dipole moment (field-independent basis, Debye):
    X=              0.0000    Y=             -0.0000    Z=             -0.0725  Tot=              0.0725
 Quadrupole moment (field-independent basis, Debye-Ang):
   XX=            -32.6148   YY=            -32.6148   ZZ=            -36.2833
   XY=             -0.0000   XZ=             -0.0000   YZ=              0.0000
 Traceless Quadrupole moment (field-independent basis, Debye-Ang):
   XX=              1.2228   YY=              1.2228   ZZ=             -2.4456
   XY=             -0.0000   XZ=             -0.0000   YZ=              0.0000
 Octapole moment (field-independent basis, Debye-Ang**2):
  XXX=              0.0000  YYY=             -0.0000  ZZZ=              1.4248  XYY=              0.0000
  XXY=             -0.0000  XXZ=              0.3185  XZZ=             -0.0000  YZZ=              0.0000
  YYZ=              0.3185  XYZ=              0.0000
 Hexadecapole moment (field-independent basis, Debye-Ang**3):
 XXXX=            -62.1300 YYYY=            -62.1300 ZZZZ=           -316.0069 XXXY=              0.0000
 XXXZ=             -0.0000 YYYX=              0.0000 YYYZ=              0.0000 ZZZX=             -0.0000
 ZZZY=              0.0000 XXYY=            -20.7100 XXZZ=            -59.1057 YYZZ=            -59.1057
 XXYZ=              0.0000 YYXZ=             -0.0000 ZZXY=              0.0000
 N-N= 1.770909874168D+02 E-N=-6.368950813616D+03  KE= 2.524201517060D+03
                          Isotropic Fermi Contact Couplings
        Atom                 a.u.       MegaHertz       Gauss      10(-4) cm-1
     1  Fe(57)             1.06416      19.29320       6.88429       6.43552
     2  Fe(57)             0.97025      17.59055       6.27675       5.86758
 --------------------------------------------------------
       Center         ----  Spin Dipole Couplings  ----
                      3XX-RR        3YY-RR        3ZZ-RR
 --------------------------------------------------------
     1   Atom        0.749862      0.749862     -1.499724
     2   Atom        1.011599      1.011599     -2.023198
 --------------------------------------------------------
                        XY            XZ            YZ
 --------------------------------------------------------
     1   Atom        0.000000      0.000000     -0.000000
     2   Atom       -0.000000      0.000000     -0.000000
 --------------------------------------------------------


 ---------------------------------------------------------------------------------
              Anisotropic Spin Dipole Couplings in Principal Axis System
 ---------------------------------------------------------------------------------

       Atom             a.u.   MegaHertz   Gauss  10(-4) cm-1        Axes

              Baa    -1.4997   -25.964    -9.265    -8.661 -0.0000  0.0000  1.0000
     1 Fe(57) Bbb     0.7499    12.982     4.632     4.330 -0.0009  1.0000 -0.0000
              Bcc     0.7499    12.982     4.632     4.330  1.0000  0.0009  0.0000
 
              Baa    -2.0232   -35.027   -12.499   -11.684 -0.0000  0.0000  1.0000
     2 Fe(57) Bbb     1.0116    17.514     6.249     5.842  1.0000  0.0079  0.0000
              Bcc     1.0116    17.514     6.249     5.842 -0.0079  1.0000 -0.0000
 

 ---------------------------------------------------------------------------------

 No NMR shielding tensors so no spin-rotation constants.
 Leave Link  601 at Sun Apr 18 07:46:32 2021, MaxMem=   104857600 cpu:             137.8 elap:               3.0
 (Enter /s/ls4/users/knvvv/bin/g16sse/l9999.exe)

 Test job not archived.
 1\1\GINC-N178\Stability\UM062X\def2TZVP\Fe2(9)\KNVVV\18-Apr-2021\0\\#P
  M062X/Def2TZVP Integral=UltraFineGrid SCF=NoSymm Stable=(RExt, Opt) I
 Op(1/33=1)\\Database calculations.\\0,9\Fe,0,0.,0.,2.02\Fe,0,0.,0.,0.\
 \Version=ES64L-G16RevA.03\HF=-2527.2292483\S2=20.221309\S2-1=0.\S2A=20
 .008266\RMSD=6.149e-10\Dipole=0.,0.,-0.0285314\Quadrupole=0.9091378,0.
 9091379,-1.8182758,0.,0.,0.\PG=D*H [C*(Fe1.Fe1)]\\@


 WE THE UNWILLING
 LED BY THE UNQUALIFIED
 HAVE BEEN DOING THE UNBELIEVABLE SO LONG WITH SO LITTLE
 THAT WE NOW ATTEMPT THE IMPOSSIBLE WITH NOTHING.

                                    -- ANONYMOUS
 Job cpu time:       0 days  4 hours 41 minutes 11.8 seconds.
 Elapsed time:       0 days  0 hours  6 minutes  9.3 seconds.
 File lengths (MBytes):  RWF=    108 Int=      0 D2E=      0 Chk=      3 Scr=      1
 Normal termination of Gaussian 16 at Sun Apr 18 07:46:32 2021.
